 vasp.6.3.0 20Jan22 (build Mar 21 2022 10:48:19) gamma-only                     
  
 executed on                 TEST date 2022.06.29  18:03:46
 running on   64 total cores
 distrk:  each k-point on   64 cores,    1 groups
 distr:  one band on NCORE=  16 cores,    4 groups


--------------------------------------------------------------------------------------------------------


 INCAR:
   ENCUT = 450.000000
   HFSCREEN = 0.200000
   POTIM = 0.020000
   EDIFF = 1.00e-08
   EDIFFG = -1.00e-05
   GGA = PE
   IBRION = 6
   ISIF = 2
   NELM = 200
   NELMIN = 5
   NSW = 1
   NCORE = 16
   ADDGRID = .TRUE.
   LHFCALC = .TRUE.
   LREAL = .FALSE.
   ALGO = ALL
   PREC = ACCURATE
   ISYM = 0
   ISYM = 0

 POTCAR:    PAW_PBE C 08Apr2002                   
 POTCAR:    PAW_PBE O 08Apr2002                   
 POTCAR:    PAW_PBE C 08Apr2002                   
   VRHFIN =C: s2p2                                                                                  
   LEXCH  = PE                                                                                      
   EATOM  =   147.1560 eV,   10.8157 Ry                                                             
                                                                                                    
   TITEL  = PAW_PBE C 08Apr2002                                                                     
   LULTRA =        F    use ultrasoft PP ?                                                          
   IUNSCR =        1    unscreen: 0-lin 1-nonlin 2-no                                               
   RPACOR =    1.200    partial core radius                                                         
   POMASS =   12.011; ZVAL   =    4.000    mass and valenz                                          
   RCORE  =    1.500    outmost cutoff radius                                                       
   RWIGS  =    1.630; RWIGS  =    0.863    wigner-seitz radius (au A)                               
   ENMAX  =  400.000; ENMIN  =  300.000 eV                                                          
   ICORE  =        2    local potential                                                             
   LCOR   =        T    correct aug charges                                                         
   LPAW   =        T    paw PP                                                                      
   EAUG   =  644.873                                                                                
   DEXC   =    0.000                                                                                
   RMAX   =    1.529    core radius for proj-oper                                                   
   RAUG   =    1.300    factor for augmentation sphere                                              
   RDEP   =    1.501    radius for radial grids                                                     
   RDEPT  =    1.300    core radius for aug-charge                                                  
                                                                                                    
   Atomic configuration                                                                             
    4 entries                                                                                       
     n  l   j            E        occ.                                                              
     1  0  0.50      -273.3789   2.0000                                                             
     2  0  0.50       -13.7508   2.0000                                                             
     2  1  0.50        -5.2854   2.0000                                                             
     3  2  1.50        -5.4423   0.0000                                                             
   Description                                                                                      
     l       E           TYP  RCUT    TYP  RCUT                                                     
     0    -13.7508458     23  1.200                                                                 
     0     -8.2022199     23  1.200                                                                 
     1     -5.2854383     23  1.500                                                                 
     1     34.0145650     23  1.500                                                                 
     2     -5.4423304      7  1.500                                                                 
  local pseudopotential read in
  partial core-charges read in
  partial kinetic energy density read in
  atomic valenz-charges read in
  non local Contribution for L=           0  read in
    real space projection operators read in
  non local Contribution for L=           0  read in
    real space projection operators read in
  non local Contribution for L=           1  read in
    real space projection operators read in
  non local Contribution for L=           1  read in
    real space projection operators read in
    PAW grid and wavefunctions read in
 
   number of l-projection  operators is LMAX  =           4
   number of lm-projection operators is LMMAX =           8
 
 POTCAR:    PAW_PBE O 08Apr2002                   
   VRHFIN =O: s2p4                                                                                  
   LEXCH  = PE                                                                                      
   EATOM  =   432.3788 eV,   31.7789 Ry                                                             
                                                                                                    
   TITEL  = PAW_PBE O 08Apr2002                                                                     
   LULTRA =        F    use ultrasoft PP ?                                                          
   IUNSCR =        1    unscreen: 0-lin 1-nonlin 2-no                                               
   RPACOR =    1.200    partial core radius                                                         
   POMASS =   16.000; ZVAL   =    6.000    mass and valenz                                          
   RCORE  =    1.520    outmost cutoff radius                                                       
   RWIGS  =    1.550; RWIGS  =    0.820    wigner-seitz radius (au A)                               
   ENMAX  =  400.000; ENMIN  =  300.000 eV                                                          
   ICORE  =        2    local potential                                                             
   LCOR   =        T    correct aug charges                                                         
   LPAW   =        T    paw PP                                                                      
   EAUG   =  605.392                                                                                
   DEXC   =    0.000                                                                                
   RMAX   =    1.553    core radius for proj-oper                                                   
   RAUG   =    1.300    factor for augmentation sphere                                              
   RDEP   =    1.550    radius for radial grids                                                     
   RDEPT  =    1.329    core radius for aug-charge                                                  
                                                                                                    
   Atomic configuration                                                                             
    4 entries                                                                                       
     n  l   j            E        occ.                                                              
     1  0  0.50      -514.6923   2.0000                                                             
     2  0  0.50       -23.9615   2.0000                                                             
     2  1  0.50        -9.0305   4.0000                                                             
     3  2  1.50        -9.5241   0.0000                                                             
   Description                                                                                      
     l       E           TYP  RCUT    TYP  RCUT                                                     
     0    -23.9615318     23  1.200                                                                 
     0     -9.5240782     23  1.200                                                                 
     1     -9.0304911     23  1.520                                                                 
     1      8.1634956     23  1.520                                                                 
     2     -9.5240782      7  1.500                                                                 
  local pseudopotential read in
  partial core-charges read in
  partial kinetic energy density read in
  kinetic energy density of atom read in
  atomic valenz-charges read in
  non local Contribution for L=           0  read in
    real space projection operators read in
  non local Contribution for L=           0  read in
    real space projection operators read in
  non local Contribution for L=           1  read in
    real space projection operators read in
  non local Contribution for L=           1  read in
    real space projection operators read in
    PAW grid and wavefunctions read in
 
   number of l-projection  operators is LMAX  =           4
   number of lm-projection operators is LMMAX =           8
 
  PAW_PBE C 08Apr2002                   :
 energy of atom  1       EATOM= -147.1560
 kinetic energy error for atom=    0.0116 (will be added to EATOM!!)
  PAW_PBE O 08Apr2002                   :
 energy of atom  2       EATOM= -432.3788
 kinetic energy error for atom=    0.0389 (will be added to EATOM!!)
 
 
 POSCAR:  C  O
  positions in direct lattice
  velocities in cartesian coordinates
 exchange correlation table for  LEXCH =        8
   RHO(1)=    0.500       N(1)  =     2000
   RHO(2)=  100.500       N(2)  =     4000
 


--------------------------------------------------------------------------------------------------------


 ion  position               nearest neighbor table
   1  0.500  0.500  0.500-   2 1.16   3 1.16
   2  0.500  0.500  0.616-   1 1.16
   3  0.500  0.500  0.384-   1 1.16
 

IMPORTANT INFORMATION: All symmetrisations will be switched off!
NOSYMM: (Re-)initialisation of all symmetry stuff for point group C_1.


----------------------------------------------------------------------------------------

                                     Primitive cell                                     

  volume of cell :    1000.0000

  direct lattice vectors                    reciprocal lattice vectors
    10.000000000  0.000000000  0.000000000     0.100000000  0.000000000  0.000000000
     0.000000000 10.000000000  0.000000000     0.000000000  0.100000000  0.000000000
     0.000000000  0.000000000 10.000000000     0.000000000  0.000000000  0.100000000

  length of vectors
    10.000000000 10.000000000 10.000000000     0.100000000  0.100000000  0.100000000

  position of ions in fractional coordinates (direct lattice)
     0.500000001  0.500000002  0.500000001
     0.500000014  0.500000002  0.616346205
     0.499999985  0.499999996  0.383653794

  ion indices of the primitive-cell ions
   primitive index   ion index
                 1           1
                 2           2
                 3           3

----------------------------------------------------------------------------------------

 
 
 KPOINTS: KPOINTS created by Atomic Simulation Env

Automatic generation of k-mesh.
 Grid dimensions read from file:
 generate k-points for:    1    1    1

 Generating k-lattice:

  Cartesian coordinates                     Fractional coordinates (reciprocal lattice)
     0.100000000  0.000000000  0.000000000     1.000000000  0.000000000  0.000000000
     0.000000000  0.100000000  0.000000000     0.000000000  1.000000000  0.000000000
     0.000000000  0.000000000  0.100000000     0.000000000  0.000000000  1.000000000

  Length of vectors
     0.100000000  0.100000000  0.100000000

  Shift w.r.t. Gamma in fractional coordinates (k-lattice)
     0.000000000  0.000000000  0.000000000

 
 Subroutine IBZKPT returns following result:
 ===========================================
 
 Found      1 irreducible k-points:
 
 Following reciprocal coordinates:
            Coordinates               Weight
  0.000000  0.000000  0.000000      1.000000
 
 Following cartesian coordinates:
            Coordinates               Weight
  0.000000  0.000000  0.000000      1.000000
 
 
 Subroutine IBZKPT_HF returns following result:
 ==============================================
 
 Found      1 k-points in 1st BZ
 the following      1 k-points will be used (e.g. in the exchange kernel)
 Following reciprocal coordinates:   # in IRBZ
  0.000000  0.000000  0.000000    1.00000000   1 t-inv F


--------------------------------------------------------------------------------------------------------




 Dimension of arrays:
   k-points           NKPTS =      1   k-points in BZ     NKDIM =      1   number of bands    NBANDS=     12
   number of dos      NEDOS =    301   number of ions     NIONS =      3
   non local maximal  LDIM  =      4   non local SUM 2l+1 LMDIM =      8
   total plane-waves  NPLWV = 343000
   max r-space proj   IRMAX =      1   max aug-charges    IRDMAX=  35796
   dimension x,y,z NGX =    70 NGY =   70 NGZ =   70
   dimension x,y,z NGXF=   140 NGYF=  140 NGZF=  140
   support grid    NGXF=   280 NGYF=  280 NGZF=  280
   ions per type =               1   2
   NGX,Y,Z   is equivalent  to a cutoff of  11.64, 11.64, 11.64 a.u.
   NGXF,Y,Z  is equivalent  to a cutoff of  23.27, 23.27, 23.27 a.u.

 SYSTEM =  unknown system                          
 POSCAR =   C  O                                   

 Startparameter for this run:
   NWRITE =      2    write-flag & timer
   PREC   = accura    normal or accurate (medium, high low for compatibility)
   ISTART =      0    job   : 0-new  1-cont  2-samecut
   ICHARG =      2    charge: 1-file 2-atom 10-const
   ISPIN  =      1    spin polarized calculation?
   LNONCOLLINEAR =      F non collinear calculations
   LSORBIT =      F    spin-orbit coupling
   INIWAV =      1    electr: 0-lowe 1-rand  2-diag
   LASPH  =      F    aspherical Exc in radial PAW
 Electronic Relaxation 1
   ENCUT  =  450.0 eV  33.07 Ry    5.75 a.u.  17.30 17.30 17.30*2*pi/ulx,y,z
   ENINI  =  450.0     initial cutoff
   ENAUG  =  644.9 eV  augmentation charge cutoff
   NELM   =    200;   NELMIN=  5; NELMDL= -5     # of ELM steps 
   EDIFF  = 0.1E-07   stopping-criterion for ELM
   LREAL  =      F    real-space projection
   NLSPLINE    = F    spline interpolate recip. space projectors
   LCOMPAT=      F    compatible to vasp.4.4
   GGA_COMPAT  = T    GGA compatible to vasp.4.4-vasp.4.6
   LMAXPAW     = -100 max onsite density
   LMAXMIX     =    2 max onsite mixed and CHGCAR
   VOSKOWN=      0    Vosko Wilk Nusair interpolation
   ROPT   =    0.00000   0.00000
 Ionic relaxation
   EDIFFG = -.1E-04   stopping-criterion for IOM
   NSW    =     73    number of steps for IOM
   NBLOCK =      1;   KBLOCK =     73    inner block; outer block 
   IBRION =      6    ionic relax: 0-MD 1-quasi-New 2-CG
   NFREE  =      2    steps in history (QN), initial steepest desc. (CG)
   ISIF   =      2    stress and relaxation
   IWAVPR =     11    prediction:  0-non 1-charg 2-wave 3-comb
   ISYM   =      0    0-nonsym 1-usesym 2-fastsym
   LCORR  =      T    Harris-Foulkes like correction to forces

   POTIM  = 0.0200    time-step for ionic-motion
   TEIN   =    0.0    initial temperature
   TEBEG  =    0.0;   TEEND  =   0.0 temperature during run
   SMASS  =  -3.00    Nose mass-parameter (am)
   estimated Nose-frequenzy (Omega)   =  0.10E-29 period in steps = 0.31E+48 mass=  -0.229E-26a.u.
   SCALEE = 1.0000    scale energy and forces
   NPACO  =    256;   APACO  = 10.0  distance and # of slots for P.C.
   PSTRESS=    0.0 pullay stress

  Mass of Ions in am
   POMASS =  12.01 16.00
  Ionic Valenz
   ZVAL   =   4.00  6.00
  Atomic Wigner-Seitz radii
   RWIGS  =  -1.00 -1.00
  virtual crystal weights 
   VCA    =   1.00  1.00
   NELECT =      16.0000    total number of electrons
   NUPDOWN=      -1.0000    fix difference up-down

 DOS related values:
   EMIN   =  10.00;   EMAX   =-10.00  energy-range for DOS
   EFERMI =   0.00
   ISMEAR =     1;   SIGMA  =   0.20  broadening in eV -4-tet -1-fermi 0-gaus

 Electronic relaxation 2 (details)
   IALGO  =     58    algorithm
   LDIAG  =      T    sub-space diagonalisation (order eigenvalues)
   LSUBROT=      F    optimize rotation matrix (better conditioning)
   TURBO    =      0    0=normal 1=particle mesh
   IRESTART =      0    0=no restart 2=restart with 2 vectors
   NREBOOT  =      0    no. of reboots
   NMIN     =      0    reboot dimension
   EREF     =   0.00    reference energy to select bands
   IMIX   =      4    mixing-type and parameters
     AMIX     =   0.40;   BMIX     =  1.00
     AMIX_MAG =   1.60;   BMIX_MAG =  1.00
     AMIN     =   0.10
     WC   =   100.;   INIMIX=   1;  MIXPRE=   1;  MAXMIX= -45

 Intra band minimization:
   WEIMIN = 0.0010     energy-eigenvalue tresh-hold
   EBREAK =  0.21E-09  absolut break condition
   DEPER  =   0.30     relativ break condition  

   TIME   =   0.40     timestep for ELM

  volume/ion in A,a.u.               =     333.33      2249.44
  Fermi-wavevector in a.u.,A,eV,Ry     =   0.412523  0.779555  2.315374  0.170175
  Thomas-Fermi vector in A             =   1.369550
 
 Write flags
   LWAVE        =      T    write WAVECAR
   LDOWNSAMPLE  =      F    k-point downsampling of WAVECAR
   LCHARG       =      T    write CHGCAR
   LVTOT        =      F    write LOCPOT, total local potential
   LVHAR        =      F    write LOCPOT, Hartree potential only
   LELF         =      F    write electronic localiz. function (ELF)
   LORBIT       =      0    0 simple, 1 ext, 2 COOP (PROOUT), +10 PAW based schemes


 Dipole corrections
   LMONO  =      F    monopole corrections only (constant potential shift)
   LDIPOL =      F    correct potential (dipole corrections)
   IDIPOL =      0    1-x, 2-y, 3-z, 4-all directions 
   EPSILON=  1.0000000 bulk dielectric constant

 Exchange correlation treatment:
   GGA     =    PE    GGA type
   LEXCH   =     8    internal setting for exchange type
   LIBXC   =     F    Libxc                    
   VOSKOWN =     0    Vosko Wilk Nusair interpolation
   EXXOEP  =     0    0=HF, 1=EXX-LHF (local Hartree Fock) 2=EXX OEP
   LHFCALC =     T    Hartree Fock is set to
   LSYMGRAD=     F    symmetrize gradient (conserves proper symmetry)
   PRECFOCK=normal    Normal, Fast or Accurate (Low or Medium for compatibility)
   LRHFCALC=     F    long range Hartree Fock
   LRSCOR  =     F    long range correlation only (use DFT for short range part)
   LTHOMAS =     F    Thomas Fermi screening in HF
   LMODELHF=     F    short range full HF, long range fraction AEXX
   LFOCKACE=     T    use Adeptively-Compressed-Exchange operator
   ENCUT4O =  -1.0   cutoff for four orbital integrals eV
   LMAXFOCK=     4    L truncation for augmentation on plane wave grid
   LMAXFOCKAE=  -1    L truncation for all-electron charge restoration on plane wave grid
   NMAXFOCKAE=   1    number of basis functions for all-electron charge restoration
   LFOCKAEDFT=     F  apply the AE augmentation even for DFT
   NKREDX  =     1    reduce k-point grid by
   NKREDY  =     1    reduce k-point grid by
   NKREDZ  =     1    reduce k-point grid by
   SHIFTRED=     F    shift reduced grid of Gamma
   HFKIDENT=     F    idential grid for each k-point
   ODDONLY =     F    use only odd q-grid points
   EVENONLY=     F    use only even q-grid points
   HFALPHA =   -1.0000 decay constant for conv. correction
   MCALPHA =    0.0000 extent of test-charge in conv. correction in multipole expansion
   AEXX    =    0.2500 exact exchange contribution
   HFSCREEN=    0.2000 screening length (either q_TF or 0.3 A-1)
   HFSCREENC=   0.2000 screening length for correlation (either q_TF or 0.3 A-1)
   HFRCUT  =    0.0000 spherical cutoff for potential kernel
   ALDAX   =    0.7500 LDA exchange part
   AGGAX   =    0.7500 GGA exchange part
   ALDAC   =    1.0000 LDA correlation
   AGGAC   =    1.0000 GGA correlation
   ENCUTFOCK=  -1.0 apply spherical cutoff to Coloumb kernel
   NBANDSGWLOW=     1    first orbital included in HF term
   NBLOCK_FOCK=    64    blocking factor in FOCK_ACC

 Linear response parameters
   LEPSILON=     F    determine dielectric tensor
   LRPA    =     F    only Hartree local field effects (RPA)
   LNABLA  =     F    use nabla operator in PAW spheres
   LVEL    =     F    velocity operator in full k-point grid
   CSHIFT  =0.1000    complex shift for real part using Kramers Kronig
   OMEGAMAX=  -1.0    maximum frequency
   DEG_THRESHOLD= 0.2000000E-02 threshold for treating states as degnerate
   RTIME   =   -0.100 relaxation time in fs
  (WPLASMAI=    0.000 imaginary part of plasma frequency in eV, 0.658/RTIME)
   DFIELD  = 0.0000000 0.0000000 0.0000000 field for delta impulse in time
 
  Optional k-point grid parameters
   LKPOINTS_OPT  =     F    use optional k-point grid
   KPOINTS_OPT_MODE=     1    mode for optional k-point grid
 
 Orbital magnetization related:
   ORBITALMAG=     F  switch on orbital magnetization
   LCHIMAG   =     F  perturbation theory with respect to B field
   DQ        =  0.001000  dq finite difference perturbation B field
   LLRAUG    =     F  two centre corrections for induced B field



--------------------------------------------------------------------------------------------------------


 finite differences with symmetry
 charge density and potential will be updated during run
 non-spin polarized calculation
 Conjugate gradient for all bands (Freysoldt, et al. PRB 79, 241103 (2009))
 preconditioned conjugated gradient                                        
 perform sub-space diagonalisation
    before iterative eigenvector-optimisation
 modified Broyden-mixing scheme, WC =      100.0
 initial mixing is a Kerker type mixing with AMIX =  0.4000 and BMIX =      1.0000
 Hartree-type preconditioning will be used
 using additional bands            4
 reciprocal scheme for non local part
 use partial core corrections
 no Harris-corrections to forces 
 use gradient corrections 
 use of overlap-Matrix (Vanderbilt PP)
 Methfessel and Paxton  Order N= 1 SIGMA  =   0.20


--------------------------------------------------------------------------------------------------------


  energy-cutoff  :      450.00
  volume of cell :     1000.00
      direct lattice vectors                 reciprocal lattice vectors
    10.000000000  0.000000000  0.000000000     0.100000000  0.000000000  0.000000000
     0.000000000 10.000000000  0.000000000     0.000000000  0.100000000  0.000000000
     0.000000000  0.000000000 10.000000000     0.000000000  0.000000000  0.100000000

  length of vectors
    10.000000000 10.000000000 10.000000000     0.100000000  0.100000000  0.100000000


 
 k-points in units of 2pi/SCALE and weight: KPOINTS created by Atomic Simulation Env
   0.00000000  0.00000000  0.00000000       1.000
 
 k-points in reciprocal lattice and weights: KPOINTS created by Atomic Simulation Env
   0.00000000  0.00000000  0.00000000       1.000
 
 position of ions in fractional coordinates (direct lattice) 
   0.50000000  0.50000000  0.50000000
   0.50000001  0.50000000  0.61634621
   0.49999999  0.50000000  0.38365379
 
 position of ions in cartesian coordinates  (Angst):
   5.00000001  5.00000002  5.00000001
   5.00000014  5.00000002  6.16346205
   4.99999985  4.99999996  3.83653794
 


--------------------------------------------------------------------------------------------------------


 use parallel FFT for orbitals z direction half grid
 k-point   1 :   0.0000 0.0000 0.0000  plane waves:   10912

 maximum and minimum number of plane-waves per node :       694      673

 maximum number of plane-waves:     10912
 maximum index in each direction: 
   IXMAX=   17   IYMAX=   17   IZMAX=   17
   IXMIN=  -17   IYMIN=  -17   IZMIN=    0


 parallel 3D FFT for wavefunctions:
    minimum data exchange during FFTs selected (reduces bandwidth)
 parallel 3D FFT for charge:
    minimum data exchange during FFTs selected (reduces bandwidth)


 FFT grid for exact exchange (Hartree Fock) 
  NGX = 54; NGY = 54; NGZ = 54

 use parallel FFT for orbitals z direction half grid
 
 Radii for the augmentation spheres in the non-local exchange
 for species   1 augmentation radius   0.874 (default was   0.699)
       energy cutoff for augmentation   1800.0
 for species   2 augmentation radius   0.902 (default was   0.722)
       energy cutoff for augmentation   1800.0

 real space projection operators:
  total allocation   :         99.63 KBytes
  max/ min on nodes  :         15.54          0.00

 Maximum index for augmentation-charges in exchange            0
  SETUP_FOCK is finished

 total amount of memory used by VASP MPI-rank0    42552. kBytes
=======================================================================

   base      :      30000. kBytes
   nonl-proj :        118. kBytes
   fftplans  :       8021. kBytes
   grid      :       4312. kBytes
   one-center:          1. kBytes
   HF        :          4. kBytes
   nonlr-proj:          0. kBytes
   wavefun   :         96. kBytes
 
     INWAV:  cpu time      0.0000: real time      0.0000
 Broyden mixing: mesh for mixing (old mesh)
   NGX = 35   NGY = 35   NGZ = 35
  (NGX  =140   NGY  =140   NGZ  =140)
  gives a total of  42875 points

 initial charge density was supplied:
 charge density of overlapping atoms calculated
 number of electron      16.0000000 magnetization 
 keeping initial charge density in first step


--------------------------------------------------------------------------------------------------------


 Maximum index for augmentation-charges          832 (set IRDMAX)


--------------------------------------------------------------------------------------------------------


 First call to EWALD:  gamma=   0.177
 Maximum number of real-space cells 3x 3x 3
 Maximum number of reciprocal cells 3x 3x 3

    FEWALD:  cpu time      0.0041: real time      0.0041


--------------------------------------- Iteration      1(   1)  ---------------------------------------


    POTLOK:  cpu time      0.0572: real time      0.0581
    SETDIJ:  cpu time      0.0312: real time      0.0313
    TRIAL :  cpu time      0.0957: real time      0.1641
    CORREC:  cpu time      0.0011: real time      0.0011
    --------------------------------------------
      LOOP:  cpu time      0.1857: real time      0.2558

 eigenvalue-minimisations  :    40
 total energy-change (2. order) : 0.1678291E+02  (-0.4772684E+03)
 number of electron      16.0000000 magnetization 
 augmentation part       16.0000000 magnetization 

 Free energy of the ion-electron system (eV)
  ---------------------------------------------------
  alpha Z        PSCENC =         1.06967730
  Ewald energy   TEWEN  =       302.25367573
  -Hartree energ DENC   =     -1110.94079067
  -exchange      EXHF   =         0.00000000
  -V(xc)+E(xc)   XCENC  =        67.63453148
  PAW double counting   =       801.62100016     -889.97731249
  entropy T*S    EENTRO =         0.01160917
  eigenvalues    EBANDS =      -159.14181526
  atomic energy  EATOM  =      1004.25233184
  ---------------------------------------------------
  free energy    TOTEN  =        16.78290726 eV

  energy without entropy =       16.77129809  energy(sigma->0) =       16.77903753
  exchange ACFDT corr.  =         0.00000000  see jH, gK, PRB 81, 115126


--------------------------------------------------------------------------------------------------------




--------------------------------------- Iteration      1(   2)  ---------------------------------------


    TRIAL :  cpu time      0.0170: real time      0.0170
    CORREC:  cpu time      0.0001: real time      0.0001
    --------------------------------------------
      LOOP:  cpu time      0.0217: real time      0.0222

 eigenvalue-minimisations  :    48
 total energy-change (2. order) :-0.1192731E+03  (-0.1182037E+03)
 number of electron      16.0000000 magnetization 
 augmentation part       16.0000000 magnetization 

 Free energy of the ion-electron system (eV)
  ---------------------------------------------------
  alpha Z        PSCENC =         1.06967730
  Ewald energy   TEWEN  =       302.25367573
  -Hartree energ DENC   =     -1110.94079067
  -exchange      EXHF   =         0.00000000
  -V(xc)+E(xc)   XCENC  =        67.63453148
  PAW double counting   =       801.62100016     -889.97731249
  entropy T*S    EENTRO =         0.01159581
  eigenvalues    EBANDS =      -278.41490348
  atomic energy  EATOM  =      1004.25233184
  ---------------------------------------------------
  free energy    TOTEN  =      -102.49019432 eV

  energy without entropy =     -102.50179013  energy(sigma->0) =     -102.49405959
  exchange ACFDT corr.  =         0.00000000  see jH, gK, PRB 81, 115126


--------------------------------------------------------------------------------------------------------




--------------------------------------- Iteration      1(   3)  ---------------------------------------


    TRIAL :  cpu time      0.0119: real time      0.0120
    CORREC:  cpu time      0.0002: real time      0.0002
    --------------------------------------------
      LOOP:  cpu time      0.0124: real time      0.0156

 eigenvalue-minimisations  :    28
 total energy-change (2. order) :-0.1878291E+02  (-0.1878860E+02)
 number of electron      16.0000000 magnetization 
 augmentation part       16.0000000 magnetization 

 Free energy of the ion-electron system (eV)
  ---------------------------------------------------
  alpha Z        PSCENC =         1.06967730
  Ewald energy   TEWEN  =       302.25367573
  -Hartree energ DENC   =     -1110.94079067
  -exchange      EXHF   =         0.00000000
  -V(xc)+E(xc)   XCENC  =        67.63453148
  PAW double counting   =       801.62100016     -889.97731249
  entropy T*S    EENTRO =         0.02366684
  eigenvalues    EBANDS =      -297.20988313
  atomic energy  EATOM  =      1004.25233184
  ---------------------------------------------------
  free energy    TOTEN  =      -121.27310294 eV

  energy without entropy =     -121.29676978  energy(sigma->0) =     -121.28099189
  exchange ACFDT corr.  =         0.00000000  see jH, gK, PRB 81, 115126


--------------------------------------------------------------------------------------------------------




--------------------------------------- Iteration      1(   4)  ---------------------------------------


    TRIAL :  cpu time      0.0113: real time      0.0113
    CORREC:  cpu time      0.0002: real time      0.0002
    --------------------------------------------
      LOOP:  cpu time      0.0117: real time      0.0147

 eigenvalue-minimisations  :    32
 total energy-change (2. order) :-0.8384144E+00  (-0.8321622E+00)
 number of electron      16.0000000 magnetization 
 augmentation part       16.0000000 magnetization 

 Free energy of the ion-electron system (eV)
  ---------------------------------------------------
  alpha Z        PSCENC =         1.06967730
  Ewald energy   TEWEN  =       302.25367573
  -Hartree energ DENC   =     -1110.94079067
  -exchange      EXHF   =         0.00000000
  -V(xc)+E(xc)   XCENC  =        67.63453148
  PAW double counting   =       801.62100016     -889.97731249
  entropy T*S    EENTRO =         0.02319278
  eigenvalues    EBANDS =      -298.04782350
  atomic energy  EATOM  =      1004.25233184
  ---------------------------------------------------
  free energy    TOTEN  =      -122.11151736 eV

  energy without entropy =     -122.13471014  energy(sigma->0) =     -122.11924829
  exchange ACFDT corr.  =         0.00000000  see jH, gK, PRB 81, 115126


--------------------------------------------------------------------------------------------------------




--------------------------------------- Iteration      1(   5)  ---------------------------------------


    POTLOK:  cpu time      0.0957: real time      0.0957
    SETDIJ:  cpu time      0.0665: real time      0.0665
    TRIAL :  cpu time      0.0868: real time      0.0874
    CORREC:  cpu time      0.0002: real time      0.0002
    CHARGE:  cpu time      0.0304: real time      0.0307
    --------------------------------------------
      LOOP:  cpu time      0.2826: real time      0.2838

 eigenvalue-minimisations  :    32
 total energy-change (2. order) : 0.9138108E+02  (-0.1925173E+00)
 number of electron      16.0000001 magnetization 
 augmentation part        1.5453969 magnetization 

 Free energy of the ion-electron system (eV)
  ---------------------------------------------------
  alpha Z        PSCENC =         1.06967730
  Ewald energy   TEWEN  =       302.25367573
  -Hartree energ DENC   =     -1110.94079067
  -exchange      EXHF   =        49.27155864
  -V(xc)+E(xc)   XCENC  =        51.89909277
  PAW double counting   =       816.18928923     -818.61689691
  entropy T*S    EENTRO =         0.02340243
  eigenvalues    EBANDS =      -326.13178205
  atomic energy  EATOM  =      1004.25233184
  ---------------------------------------------------
  free energy    TOTEN  =       -30.73044170 eV

  energy without entropy =      -30.75384413  energy(sigma->0) =      -30.73824251
  exchange ACFDT corr.  =         0.00019210  see jH, gK, PRB 81, 115126


--------------------------------------------------------------------------------------------------------




--------------------------------------- Iteration      1(   6)  ---------------------------------------


    POTLOK:  cpu time      0.0929: real time      0.0929
    SETDIJ:  cpu time      0.0594: real time      0.0594
    TRIAL :  cpu time      0.0577: real time      0.0588
    CORREC:  cpu time      0.2210: real time      0.2211
    CHARGE:  cpu time      0.0226: real time      0.0226
    --------------------------------------------
      LOOP:  cpu time      0.4540: real time      0.4584

 eigenvalue-minimisations  :     0
 total energy-change (2. order) : 0.6066384E+01  (-0.2877727E+01)
 number of electron      16.0000000 magnetization 
 augmentation part        1.4002603 magnetization 

 Free energy of the ion-electron system (eV)
  ---------------------------------------------------
  alpha Z        PSCENC =         1.06967730
  Ewald energy   TEWEN  =       302.25367573
  -Hartree energ DENC   =     -1203.00033652
  -exchange      EXHF   =        49.48077112
  -V(xc)+E(xc)   XCENC  =        56.02616455
  PAW double counting   =      1698.12668134    -1701.33086002
  entropy T*S    EENTRO =         0.02341739
  eigenvalues    EBANDS =      -231.56556582
  atomic energy  EATOM  =      1004.25233184
  ---------------------------------------------------
  free energy    TOTEN  =       -24.66405805 eV

  energy without entropy =      -24.68747544  energy(sigma->0) =      -24.67186384
  exchange ACFDT corr.  =         0.00315669  see jH, gK, PRB 81, 115126


--------------------------------------------------------------------------------------------------------




--------------------------------------- Iteration      1(   7)  ---------------------------------------


    POTLOK:  cpu time      0.1007: real time      0.1007
    SETDIJ:  cpu time      0.0584: real time      0.0584
    TRIAL :  cpu time      0.0341: real time      0.0343
    CORREC:  cpu time      0.2084: real time      0.2085
    CHARGE:  cpu time      0.0229: real time      0.0229
    --------------------------------------------
      LOOP:  cpu time      0.4263: real time      0.4295

 eigenvalue-minimisations  :     0
 total energy-change (2. order) :-0.2913601E+01  (-0.4922070E+00)
 number of electron      16.0000000 magnetization 
 augmentation part        1.3431486 magnetization 

 Free energy of the ion-electron system (eV)
  ---------------------------------------------------
  alpha Z        PSCENC =         1.06967730
  Ewald energy   TEWEN  =       302.25367573
  -Hartree energ DENC   =     -1147.60467249
  -exchange      EXHF   =        46.90827584
  -V(xc)+E(xc)   XCENC  =        53.64150130
  PAW double counting   =      1638.91801252    -1641.76440720
  entropy T*S    EENTRO =         0.02346327
  eigenvalues    EBANDS =      -285.27547088
  atomic energy  EATOM  =      1004.25233184
  ---------------------------------------------------
  free energy    TOTEN  =       -27.57765865 eV

  energy without entropy =      -27.60112191  energy(sigma->0) =      -27.58547973
  exchange ACFDT corr.  =         0.00311192  see jH, gK, PRB 81, 115126


--------------------------------------------------------------------------------------------------------




--------------------------------------- Iteration      1(   8)  ---------------------------------------


    POTLOK:  cpu time      0.0953: real time      0.0953
    SETDIJ:  cpu time      0.0587: real time      0.0587
    TRIAL :  cpu time      0.0336: real time      0.0338
    CORREC:  cpu time      0.2079: real time      0.2080
    CHARGE:  cpu time      0.0226: real time      0.0226
    --------------------------------------------
      LOOP:  cpu time      0.4194: real time      0.4227

 eigenvalue-minimisations  :     0
 total energy-change (2. order) :-0.4924650E+00  (-0.1896750E+00)
 number of electron      16.0000000 magnetization 
 augmentation part        1.3310076 magnetization 

 Free energy of the ion-electron system (eV)
  ---------------------------------------------------
  alpha Z        PSCENC =         1.06967730
  Ewald energy   TEWEN  =       302.25367573
  -Hartree energ DENC   =     -1150.59920668
  -exchange      EXHF   =        46.87372589
  -V(xc)+E(xc)   XCENC  =        53.61459630
  PAW double counting   =      1640.72740455    -1643.31008078
  entropy T*S    EENTRO =         0.02353180
  eigenvalues    EBANDS =      -282.97571108
  atomic energy  EATOM  =      1004.25233184
  ---------------------------------------------------
  free energy    TOTEN  =       -28.07012367 eV

  energy without entropy =      -28.09365547  energy(sigma->0) =      -28.07796760
  exchange ACFDT corr.  =         0.00346931  see jH, gK, PRB 81, 115126


--------------------------------------------------------------------------------------------------------




--------------------------------------- Iteration      1(   9)  ---------------------------------------


    POTLOK:  cpu time      0.0946: real time      0.0946
    SETDIJ:  cpu time      0.0589: real time      0.0589
    TRIAL :  cpu time      0.0342: real time      0.0342
    CORREC:  cpu time      0.2058: real time      0.2059
    CHARGE:  cpu time      0.0227: real time      0.0227
    --------------------------------------------
      LOOP:  cpu time      0.4175: real time      0.4207

 eigenvalue-minimisations  :     0
 total energy-change (2. order) :-0.1898421E+00  (-0.7408652E-01)
 number of electron      16.0000000 magnetization 
 augmentation part        1.3296802 magnetization 

 Free energy of the ion-electron system (eV)
  ---------------------------------------------------
  alpha Z        PSCENC =         1.06967730
  Ewald energy   TEWEN  =       302.25367573
  -Hartree energ DENC   =     -1153.47974093
  -exchange      EXHF   =        46.89616943
  -V(xc)+E(xc)   XCENC  =        53.65805859
  PAW double counting   =      1650.26396999    -1652.78300434
  entropy T*S    EENTRO =         0.02362253
  eigenvalues    EBANDS =      -280.41463517
  atomic energy  EATOM  =      1004.25233184
  ---------------------------------------------------
  free energy    TOTEN  =       -28.25996577 eV

  energy without entropy =      -28.28358831  energy(sigma->0) =      -28.26783995
  exchange ACFDT corr.  =         0.00400438  see jH, gK, PRB 81, 115126


--------------------------------------------------------------------------------------------------------




--------------------------------------- Iteration      1(  10)  ---------------------------------------


    POTLOK:  cpu time      0.0926: real time      0.0926
    SETDIJ:  cpu time      0.0584: real time      0.0584
    TRIAL :  cpu time      0.0339: real time      0.0340
    CORREC:  cpu time      0.2061: real time      0.2062
    CHARGE:  cpu time      0.0229: real time      0.0229
    --------------------------------------------
      LOOP:  cpu time      0.4156: real time      0.4189

 eigenvalue-minimisations  :     0
 total energy-change (2. order) :-0.7405092E-01  (-0.2994291E-01)
 number of electron      16.0000000 magnetization 
 augmentation part        1.3320960 magnetization 

 Free energy of the ion-electron system (eV)
  ---------------------------------------------------
  alpha Z        PSCENC =         1.06967730
  Ewald energy   TEWEN  =       302.25367573
  -Hartree energ DENC   =     -1152.27286191
  -exchange      EXHF   =        46.81123770
  -V(xc)+E(xc)   XCENC  =        53.60226193
  PAW double counting   =      1655.70877536    -1658.21699666
  entropy T*S    EENTRO =         0.02373143
  eigenvalues    EBANDS =      -281.56574053
  atomic energy  EATOM  =      1004.25233184
  ---------------------------------------------------
  free energy    TOTEN  =       -28.33401670 eV

  energy without entropy =      -28.35774812  energy(sigma->0) =      -28.34192717
  exchange ACFDT corr.  =         0.00465086  see jH, gK, PRB 81, 115126


--------------------------------------------------------------------------------------------------------




--------------------------------------- Iteration      1(  11)  ---------------------------------------


    POTLOK:  cpu time      0.0926: real time      0.0926
    SETDIJ:  cpu time      0.0586: real time      0.0586
    TRIAL :  cpu time      0.0339: real time      0.0340
    CORREC:  cpu time      0.2056: real time      0.2057
    CHARGE:  cpu time      0.0227: real time      0.0227
    --------------------------------------------
      LOOP:  cpu time      0.4149: real time      0.4181

 eigenvalue-minimisations  :     0
 total energy-change (2. order) :-0.2991334E-01  (-0.1059409E-01)
 number of electron      16.0000000 magnetization 
 augmentation part        1.3357949 magnetization 

 Free energy of the ion-electron system (eV)
  ---------------------------------------------------
  alpha Z        PSCENC =         1.06967730
  Ewald energy   TEWEN  =       302.25367573
  -Hartree energ DENC   =     -1152.11992996
  -exchange      EXHF   =        46.77603578
  -V(xc)+E(xc)   XCENC  =        53.59467726
  PAW double counting   =      1661.94607308    -1664.45759354
  entropy T*S    EENTRO =         0.02384407
  eigenvalues    EBANDS =      -281.70260895
  atomic energy  EATOM  =      1004.25233184
  ---------------------------------------------------
  free energy    TOTEN  =       -28.36393004 eV

  energy without entropy =      -28.38777410  energy(sigma->0) =      -28.37187806
  exchange ACFDT corr.  =         0.00535691  see jH, gK, PRB 81, 115126


--------------------------------------------------------------------------------------------------------




--------------------------------------- Iteration      1(  12)  ---------------------------------------


    POTLOK:  cpu time      0.0924: real time      0.0924
    SETDIJ:  cpu time      0.0591: real time      0.0591
    TRIAL :  cpu time      0.0337: real time      0.0338
    CORREC:  cpu time      0.2057: real time      0.2058
    CHARGE:  cpu time      0.0228: real time      0.0228
    --------------------------------------------
      LOOP:  cpu time      0.4154: real time      0.4188

 eigenvalue-minimisations  :     0
 total energy-change (2. order) :-0.1059109E-01  (-0.3375305E-02)
 number of electron      16.0000000 magnetization 
 augmentation part        1.3378861 magnetization 

 Free energy of the ion-electron system (eV)
  ---------------------------------------------------
  alpha Z        PSCENC =         1.06967730
  Ewald energy   TEWEN  =       302.25367573
  -Hartree energ DENC   =     -1152.25498254
  -exchange      EXHF   =        46.76331139
  -V(xc)+E(xc)   XCENC  =        53.59843416
  PAW double counting   =      1667.32825894    -1669.85450151
  entropy T*S    EENTRO =         0.02397622
  eigenvalues    EBANDS =      -281.55457051
  atomic energy  EATOM  =      1004.25233184
  ---------------------------------------------------
  free energy    TOTEN  =       -28.37452112 eV

  energy without entropy =      -28.39849734  energy(sigma->0) =      -28.38251320
  exchange ACFDT corr.  =         0.00603219  see jH, gK, PRB 81, 115126


--------------------------------------------------------------------------------------------------------




--------------------------------------- Iteration      1(  13)  ---------------------------------------


    POTLOK:  cpu time      0.0920: real time      0.0920
    SETDIJ:  cpu time      0.0585: real time      0.0585
    TRIAL :  cpu time      0.0337: real time      0.0338
    CORREC:  cpu time      0.2053: real time      0.2054
    CHARGE:  cpu time      0.0229: real time      0.0229
    --------------------------------------------
      LOOP:  cpu time      0.4138: real time      0.4170

 eigenvalue-minimisations  :     0
 total energy-change (2. order) :-0.3375416E-02  (-0.1045846E-02)
 number of electron      16.0000000 magnetization 
 augmentation part        1.3382752 magnetization 

 Free energy of the ion-electron system (eV)
  ---------------------------------------------------
  alpha Z        PSCENC =         1.06967730
  Ewald energy   TEWEN  =       302.25367573
  -Hartree energ DENC   =     -1152.18955843
  -exchange      EXHF   =        46.75663889
  -V(xc)+E(xc)   XCENC  =        53.59753779
  PAW double counting   =      1670.43701430    -1672.97309388
  entropy T*S    EENTRO =         0.02413126
  eigenvalues    EBANDS =      -281.60609629
  atomic energy  EATOM  =      1004.25233184
  ---------------------------------------------------
  free energy    TOTEN  =       -28.37789654 eV

  energy without entropy =      -28.40202780  energy(sigma->0) =      -28.38594029
  exchange ACFDT corr.  =         0.00677700  see jH, gK, PRB 81, 115126


--------------------------------------------------------------------------------------------------------




--------------------------------------- Iteration      1(  14)  ---------------------------------------


    POTLOK:  cpu time      0.0919: real time      0.0919
    SETDIJ:  cpu time      0.0588: real time      0.0588
    TRIAL :  cpu time      0.0336: real time      0.0337
    CORREC:  cpu time      0.2051: real time      0.2053
    CHARGE:  cpu time      0.0231: real time      0.0231
    --------------------------------------------
      LOOP:  cpu time      0.4137: real time      0.4169

 eigenvalue-minimisations  :     0
 total energy-change (2. order) :-0.1046225E-02  (-0.3329608E-03)
 number of electron      16.0000000 magnetization 
 augmentation part        1.3385389 magnetization 

 Free energy of the ion-electron system (eV)
  ---------------------------------------------------
  alpha Z        PSCENC =         1.06967730
  Ewald energy   TEWEN  =       302.25367573
  -Hartree energ DENC   =     -1152.04083762
  -exchange      EXHF   =        46.75176252
  -V(xc)+E(xc)   XCENC  =        53.59354040
  PAW double counting   =      1671.87624988    -1674.41450930
  entropy T*S    EENTRO =         0.02431205
  eigenvalues    EBANDS =      -281.74496478
  atomic energy  EATOM  =      1004.25233184
  ---------------------------------------------------
  free energy    TOTEN  =       -28.37894277 eV

  energy without entropy =      -28.40325481  energy(sigma->0) =      -28.38704678
  exchange ACFDT corr.  =         0.00760357  see jH, gK, PRB 81, 115126


--------------------------------------------------------------------------------------------------------




--------------------------------------- Iteration      1(  15)  ---------------------------------------


    POTLOK:  cpu time      0.0919: real time      0.0919
    SETDIJ:  cpu time      0.0588: real time      0.0588
    TRIAL :  cpu time      0.0342: real time      0.0345
    CORREC:  cpu time      0.2053: real time      0.2056
    CHARGE:  cpu time      0.0229: real time      0.0229
    --------------------------------------------
      LOOP:  cpu time      0.4144: real time      0.4178

 eigenvalue-minimisations  :     0
 total energy-change (2. order) :-0.3331656E-03  (-0.1431899E-03)
 number of electron      16.0000000 magnetization 
 augmentation part        1.3386038 magnetization 

 Free energy of the ion-electron system (eV)
  ---------------------------------------------------
  alpha Z        PSCENC =         1.06967730
  Ewald energy   TEWEN  =       302.25367573
  -Hartree energ DENC   =     -1152.05499218
  -exchange      EXHF   =        46.75260937
  -V(xc)+E(xc)   XCENC  =        53.59413401
  PAW double counting   =      1672.71490238    -1675.25447347
  entropy T*S    EENTRO =         0.02454741
  eigenvalues    EBANDS =      -281.73145295
  atomic energy  EATOM  =      1004.25233184
  ---------------------------------------------------
  free energy    TOTEN  =       -28.37927593 eV

  energy without entropy =      -28.40382334  energy(sigma->0) =      -28.38745840
  exchange ACFDT corr.  =         0.00851426  see jH, gK, PRB 81, 115126


--------------------------------------------------------------------------------------------------------




--------------------------------------- Iteration      1(  16)  ---------------------------------------


    POTLOK:  cpu time      0.0920: real time      0.0920
    SETDIJ:  cpu time      0.0590: real time      0.0590
    TRIAL :  cpu time      0.0335: real time      0.0339
    CORREC:  cpu time      0.2056: real time      0.2060
    CHARGE:  cpu time      0.0230: real time      0.0231
    --------------------------------------------
      LOOP:  cpu time      0.4151: real time      0.4186

 eigenvalue-minimisations  :     0
 total energy-change (2. order) :-0.1429607E-03  (-0.9692030E-04)
 number of electron      16.0000000 magnetization 
 augmentation part        1.3384297 magnetization 

 Free energy of the ion-electron system (eV)
  ---------------------------------------------------
  alpha Z        PSCENC =         1.06967730
  Ewald energy   TEWEN  =       302.25367573
  -Hartree energ DENC   =     -1152.09611337
  -exchange      EXHF   =        46.75535683
  -V(xc)+E(xc)   XCENC  =        53.59573706
  PAW double counting   =      1673.04468293    -1675.58456456
  entropy T*S    EENTRO =         0.02489681
  eigenvalues    EBANDS =      -281.69475005
  atomic energy  EATOM  =      1004.25233184
  ---------------------------------------------------
  free energy    TOTEN  =       -28.37941889 eV

  energy without entropy =      -28.40431570  energy(sigma->0) =      -28.38771783
  exchange ACFDT corr.  =         0.00962751  see jH, gK, PRB 81, 115126


--------------------------------------------------------------------------------------------------------




--------------------------------------- Iteration      1(  17)  ---------------------------------------


    POTLOK:  cpu time      0.0918: real time      0.0919
    SETDIJ:  cpu time      0.0582: real time      0.0582
    TRIAL :  cpu time      0.0336: real time      0.0339
    CORREC:  cpu time      0.2046: real time      0.2052
    CHARGE:  cpu time      0.0230: real time      0.0230
    --------------------------------------------
      LOOP:  cpu time      0.4125: real time      0.4166

 eigenvalue-minimisations  :     0
 total energy-change (2. order) :-0.9596987E-04  (-0.6635687E-04)
 number of electron      16.0000000 magnetization 
 augmentation part        1.3383396 magnetization 

 Free energy of the ion-electron system (eV)
  ---------------------------------------------------
  alpha Z        PSCENC =         1.06967730
  Ewald energy   TEWEN  =       302.25367573
  -Hartree energ DENC   =     -1152.07562488
  -exchange      EXHF   =        46.75639858
  -V(xc)+E(xc)   XCENC  =        53.59511577
  PAW double counting   =      1672.88736055    -1675.42679433
  entropy T*S    EENTRO =         0.02526651
  eigenvalues    EBANDS =      -281.71655223
  atomic energy  EATOM  =      1004.25233184
  ---------------------------------------------------
  free energy    TOTEN  =       -28.37951486 eV

  energy without entropy =      -28.40478137  energy(sigma->0) =      -28.38793703
  exchange ACFDT corr.  =         0.01115290  see jH, gK, PRB 81, 115126


--------------------------------------------------------------------------------------------------------




--------------------------------------- Iteration      1(  18)  ---------------------------------------


    POTLOK:  cpu time      0.0920: real time      0.0920
    SETDIJ:  cpu time      0.0593: real time      0.0593
    TRIAL :  cpu time      0.0334: real time      0.0336
    CORREC:  cpu time      0.2053: real time      0.2055
    CHARGE:  cpu time      0.0230: real time      0.0230
    --------------------------------------------
      LOOP:  cpu time      0.4143: real time      0.4178

 eigenvalue-minimisations  :     0
 total energy-change (2. order) :-0.6584482E-04  (-0.4198029E-04)
 number of electron      16.0000000 magnetization 
 augmentation part        1.3383218 magnetization 

 Free energy of the ion-electron system (eV)
  ---------------------------------------------------
  alpha Z        PSCENC =         1.06967730
  Ewald energy   TEWEN  =       302.25367573
  -Hartree energ DENC   =     -1152.07626768
  -exchange      EXHF   =        46.75781694
  -V(xc)+E(xc)   XCENC  =        53.59521508
  PAW double counting   =      1672.42687408    -1674.96626647
  entropy T*S    EENTRO =         0.02553601
  eigenvalues    EBANDS =      -281.71790404
  atomic energy  EATOM  =      1004.25233184
  ---------------------------------------------------
  free energy    TOTEN  =       -28.37958071 eV

  energy without entropy =      -28.40511671  energy(sigma->0) =      -28.38809271
  exchange ACFDT corr.  =         0.01261720  see jH, gK, PRB 81, 115126


--------------------------------------------------------------------------------------------------------




--------------------------------------- Iteration      1(  19)  ---------------------------------------


    POTLOK:  cpu time      0.0919: real time      0.0919
    SETDIJ:  cpu time      0.0585: real time      0.0585
    TRIAL :  cpu time      0.0334: real time      0.0336
    CORREC:  cpu time      0.2057: real time      0.2059
    CHARGE:  cpu time      0.0228: real time      0.0228
    --------------------------------------------
      LOOP:  cpu time      0.4137: real time      0.4170

 eigenvalue-minimisations  :     0
 total energy-change (2. order) :-0.4210149E-04  (-0.2031602E-04)
 number of electron      16.0000000 magnetization 
 augmentation part        1.3383354 magnetization 

 Free energy of the ion-electron system (eV)
  ---------------------------------------------------
  alpha Z        PSCENC =         1.06967730
  Ewald energy   TEWEN  =       302.25367573
  -Hartree energ DENC   =     -1152.08765679
  -exchange      EXHF   =        46.75877802
  -V(xc)+E(xc)   XCENC  =        53.59556957
  PAW double counting   =      1671.89255311    -1674.43217692
  entropy T*S    EENTRO =         0.02566073
  eigenvalues    EBANDS =      -281.70791067
  atomic energy  EATOM  =      1004.25233184
  ---------------------------------------------------
  free energy    TOTEN  =       -28.37962281 eV

  energy without entropy =      -28.40528353  energy(sigma->0) =      -28.38817638
  exchange ACFDT corr.  =         0.01359389  see jH, gK, PRB 81, 115126


--------------------------------------------------------------------------------------------------------




--------------------------------------- Iteration      1(  20)  ---------------------------------------


    POTLOK:  cpu time      0.0918: real time      0.0918
    SETDIJ:  cpu time      0.0589: real time      0.0589
    TRIAL :  cpu time      0.0335: real time      0.0338
    CORREC:  cpu time      0.2045: real time      0.2046
    CHARGE:  cpu time      0.0227: real time      0.0227
    --------------------------------------------
      LOOP:  cpu time      0.4133: real time      0.4167

 eigenvalue-minimisations  :     0
 total energy-change (2. order) :-0.2037227E-04  (-0.9494665E-05)
 number of electron      16.0000000 magnetization 
 augmentation part        1.3383633 magnetization 

 Free energy of the ion-electron system (eV)
  ---------------------------------------------------
  alpha Z        PSCENC =         1.06967730
  Ewald energy   TEWEN  =       302.25367573
  -Hartree energ DENC   =     -1152.08584077
  -exchange      EXHF   =        46.75872168
  -V(xc)+E(xc)   XCENC  =        53.59545291
  PAW double counting   =      1671.54528179    -1674.08507957
  entropy T*S    EENTRO =         0.02571316
  eigenvalues    EBANDS =      -281.70952481
  atomic energy  EATOM  =      1004.25233184
  ---------------------------------------------------
  free energy    TOTEN  =       -28.37964318 eV

  energy without entropy =      -28.40535634  energy(sigma->0) =      -28.38821423
  exchange ACFDT corr.  =         0.01401933  see jH, gK, PRB 81, 115126


--------------------------------------------------------------------------------------------------------




--------------------------------------- Iteration      1(  21)  ---------------------------------------


    POTLOK:  cpu time      0.0920: real time      0.0920
    SETDIJ:  cpu time      0.0588: real time      0.0588
    TRIAL :  cpu time      0.0333: real time      0.0335
    CORREC:  cpu time      0.2053: real time      0.2055
    CHARGE:  cpu time      0.0228: real time      0.0228
    --------------------------------------------
      LOOP:  cpu time      0.4152: real time      0.4172

 eigenvalue-minimisations  :     0
 total energy-change (2. order) :-0.9513041E-05  (-0.3854103E-05)
 number of electron      16.0000000 magnetization 
 augmentation part        1.3383757 magnetization 

 Free energy of the ion-electron system (eV)
  ---------------------------------------------------
  alpha Z        PSCENC =         1.06967730
  Ewald energy   TEWEN  =       302.25367573
  -Hartree energ DENC   =     -1152.08561376
  -exchange      EXHF   =        46.75869503
  -V(xc)+E(xc)   XCENC  =        53.59549030
  PAW double counting   =      1671.44251081    -1673.98236169
  entropy T*S    EENTRO =         0.02572995
  eigenvalues    EBANDS =      -281.70977140
  atomic energy  EATOM  =      1004.25233184
  ---------------------------------------------------
  free energy    TOTEN  =       -28.37965269 eV

  energy without entropy =      -28.40538265  energy(sigma->0) =      -28.38822934
  exchange ACFDT corr.  =         0.01419181  see jH, gK, PRB 81, 115126


--------------------------------------------------------------------------------------------------------




--------------------------------------- Iteration      1(  22)  ---------------------------------------


    POTLOK:  cpu time      0.0920: real time      0.0920
    SETDIJ:  cpu time      0.0590: real time      0.0590
    TRIAL :  cpu time      0.0335: real time      0.0337
    CORREC:  cpu time      0.2054: real time      0.2056
    CHARGE:  cpu time      0.0230: real time      0.0230
    --------------------------------------------
      LOOP:  cpu time      0.4146: real time      0.4179

 eigenvalue-minimisations  :     0
 total energy-change (2. order) :-0.3857562E-05  (-0.1468856E-05)
 number of electron      16.0000000 magnetization 
 augmentation part        1.3383735 magnetization 

 Free energy of the ion-electron system (eV)
  ---------------------------------------------------
  alpha Z        PSCENC =         1.06967730
  Ewald energy   TEWEN  =       302.25367573
  -Hartree energ DENC   =     -1152.08632577
  -exchange      EXHF   =        46.75866074
  -V(xc)+E(xc)   XCENC  =        53.59553348
  PAW double counting   =      1671.51240551    -1674.05218874
  entropy T*S    EENTRO =         0.02573191
  eigenvalues    EBANDS =      -281.70915659
  atomic energy  EATOM  =      1004.25233184
  ---------------------------------------------------
  free energy    TOTEN  =       -28.37965655 eV

  energy without entropy =      -28.40538846  energy(sigma->0) =      -28.38823385
  exchange ACFDT corr.  =         0.01424478  see jH, gK, PRB 81, 115126


--------------------------------------------------------------------------------------------------------




--------------------------------------- Iteration      1(  23)  ---------------------------------------


    POTLOK:  cpu time      0.0919: real time      0.0919
    SETDIJ:  cpu time      0.0589: real time      0.0589
    TRIAL :  cpu time      0.0335: real time      0.0337
    CORREC:  cpu time      0.2047: real time      0.2048
    CHARGE:  cpu time      0.0229: real time      0.0229
    --------------------------------------------
      LOOP:  cpu time      0.4132: real time      0.4166

 eigenvalue-minimisations  :     0
 total energy-change (2. order) :-0.1471235E-05  (-0.5478310E-06)
 number of electron      16.0000000 magnetization 
 augmentation part        1.3383774 magnetization 

 Free energy of the ion-electron system (eV)
  ---------------------------------------------------
  alpha Z        PSCENC =         1.06967730
  Ewald energy   TEWEN  =       302.25367573
  -Hartree energ DENC   =     -1152.08468767
  -exchange      EXHF   =        46.75853200
  -V(xc)+E(xc)   XCENC  =        53.59545416
  PAW double counting   =      1671.62471430    -1674.16440782
  entropy T*S    EENTRO =         0.02572866
  eigenvalues    EBANDS =      -281.71067976
  atomic energy  EATOM  =      1004.25233184
  ---------------------------------------------------
  free energy    TOTEN  =       -28.37965802 eV

  energy without entropy =      -28.40538668  energy(sigma->0) =      -28.38823424
  exchange ACFDT corr.  =         0.01425037  see jH, gK, PRB 81, 115126


--------------------------------------------------------------------------------------------------------




--------------------------------------- Iteration      1(  24)  ---------------------------------------


    POTLOK:  cpu time      0.0919: real time      0.0919
    SETDIJ:  cpu time      0.0589: real time      0.0589
    TRIAL :  cpu time      0.0334: real time      0.0334
    CORREC:  cpu time      0.2047: real time      0.2048
    CHARGE:  cpu time      0.0230: real time      0.0230
    --------------------------------------------
      LOOP:  cpu time      0.4134: real time      0.4166

 eigenvalue-minimisations  :     0
 total energy-change (2. order) :-0.5466914E-06  (-0.2355090E-06)
 number of electron      16.0000000 magnetization 
 augmentation part        1.3383821 magnetization 

 Free energy of the ion-electron system (eV)
  ---------------------------------------------------
  alpha Z        PSCENC =         1.06967730
  Ewald energy   TEWEN  =       302.25367573
  -Hartree energ DENC   =     -1152.08453842
  -exchange      EXHF   =        46.75849698
  -V(xc)+E(xc)   XCENC  =        53.59543667
  PAW double counting   =      1671.72582598    -1674.26549390
  entropy T*S    EENTRO =         0.02572321
  eigenvalues    EBANDS =      -281.71079942
  atomic energy  EATOM  =      1004.25233184
  ---------------------------------------------------
  free energy    TOTEN  =       -28.37965857 eV

  energy without entropy =      -28.40538178  energy(sigma->0) =      -28.38823297
  exchange ACFDT corr.  =         0.01424032  see jH, gK, PRB 81, 115126


--------------------------------------------------------------------------------------------------------




--------------------------------------- Iteration      1(  25)  ---------------------------------------


    POTLOK:  cpu time      0.0918: real time      0.0918
    SETDIJ:  cpu time      0.0588: real time      0.0588
    TRIAL :  cpu time      0.0336: real time      0.0337
    CORREC:  cpu time      0.2049: real time      0.2050
    CHARGE:  cpu time      0.0229: real time      0.0229
    --------------------------------------------
      LOOP:  cpu time      0.4130: real time      0.4162

 eigenvalue-minimisations  :     0
 total energy-change (2. order) :-0.2373097E-06  (-0.1201661E-06)
 number of electron      16.0000000 magnetization 
 augmentation part        1.3383834 magnetization 

 Free energy of the ion-electron system (eV)
  ---------------------------------------------------
  alpha Z        PSCENC =         1.06967730
  Ewald energy   TEWEN  =       302.25367573
  -Hartree energ DENC   =     -1152.08577768
  -exchange      EXHF   =        46.75853207
  -V(xc)+E(xc)   XCENC  =        53.59547734
  PAW double counting   =      1671.81181580    -1674.35147679
  entropy T*S    EENTRO =         0.02571696
  eigenvalues    EBANDS =      -281.70963763
  atomic energy  EATOM  =      1004.25233184
  ---------------------------------------------------
  free energy    TOTEN  =       -28.37965881 eV

  energy without entropy =      -28.40537577  energy(sigma->0) =      -28.38823113
  exchange ACFDT corr.  =         0.01422359  see jH, gK, PRB 81, 115126


--------------------------------------------------------------------------------------------------------




--------------------------------------- Iteration      1(  26)  ---------------------------------------


    POTLOK:  cpu time      0.0918: real time      0.0918
    SETDIJ:  cpu time      0.0586: real time      0.0586
    TRIAL :  cpu time      0.0336: real time      0.0338
    CORREC:  cpu time      0.2057: real time      0.2057
    CHARGE:  cpu time      0.0230: real time      0.0230
    --------------------------------------------
      LOOP:  cpu time      0.4150: real time      0.4176

 eigenvalue-minimisations  :     0
 total energy-change (2. order) :-0.1201067E-06  (-0.5296726E-07)
 number of electron      16.0000000 magnetization 
 augmentation part        1.3383850 magnetization 

 Free energy of the ion-electron system (eV)
  ---------------------------------------------------
  alpha Z        PSCENC =         1.06967730
  Ewald energy   TEWEN  =       302.25367573
  -Hartree energ DENC   =     -1152.08616907
  -exchange      EXHF   =        46.75854200
  -V(xc)+E(xc)   XCENC  =        53.59549111
  PAW double counting   =      1671.87208518    -1674.41173829
  entropy T*S    EENTRO =         0.02571193
  eigenvalues    EBANDS =      -281.70927168
  atomic energy  EATOM  =      1004.25233184
  ---------------------------------------------------
  free energy    TOTEN  =       -28.37965893 eV

  energy without entropy =      -28.40537085  energy(sigma->0) =      -28.38822957
  exchange ACFDT corr.  =         0.01420401  see jH, gK, PRB 81, 115126


--------------------------------------------------------------------------------------------------------




--------------------------------------- Iteration      1(  27)  ---------------------------------------


    POTLOK:  cpu time      0.0919: real time      0.0919
    SETDIJ:  cpu time      0.0592: real time      0.0592
    TRIAL :  cpu time      0.0336: real time      0.0336
    CORREC:  cpu time      0.2051: real time      0.2052
    CHARGE:  cpu time      0.0232: real time      0.0232
    --------------------------------------------
      LOOP:  cpu time      0.4145: real time      0.4176

 eigenvalue-minimisations  :     0
 total energy-change (2. order) :-0.5345328E-07  (-0.2875459E-07)
 number of electron      16.0000000 magnetization 
 augmentation part        1.3383879 magnetization 

 Free energy of the ion-electron system (eV)
  ---------------------------------------------------
  alpha Z        PSCENC =         1.06967730
  Ewald energy   TEWEN  =       302.25367573
  -Hartree energ DENC   =     -1152.08556972
  -exchange      EXHF   =        46.75852015
  -V(xc)+E(xc)   XCENC  =        53.59547303
  PAW double counting   =      1671.90129466    -1674.44095453
  entropy T*S    EENTRO =         0.02570772
  eigenvalues    EBANDS =      -281.70981937
  atomic energy  EATOM  =      1004.25233184
  ---------------------------------------------------
  free energy    TOTEN  =       -28.37965898 eV

  energy without entropy =      -28.40536670  energy(sigma->0) =      -28.38822822
  exchange ACFDT corr.  =         0.01418777  see jH, gK, PRB 81, 115126


--------------------------------------------------------------------------------------------------------




--------------------------------------- Iteration      1(  28)  ---------------------------------------


    POTLOK:  cpu time      0.0919: real time      0.0919
    SETDIJ:  cpu time      0.0590: real time      0.0590
    TRIAL :  cpu time      0.0345: real time      0.0346
    CORREC:  cpu time      0.2056: real time      0.2057
    CHARGE:  cpu time      0.0230: real time      0.0231
    --------------------------------------------
      LOOP:  cpu time      0.4150: real time      0.4183

 eigenvalue-minimisations  :     0
 total energy-change (2. order) :-0.2782599E-07  (-0.1501364E-07)
 number of electron      16.0000000 magnetization 
 augmentation part        1.3383893 magnetization 

 Free energy of the ion-electron system (eV)
  ---------------------------------------------------
  alpha Z        PSCENC =         1.06967730
  Ewald energy   TEWEN  =       302.25367573
  -Hartree energ DENC   =     -1152.08564728
  -exchange      EXHF   =        46.75852571
  -V(xc)+E(xc)   XCENC  =        53.59548150
  PAW double counting   =      1671.91401475    -1674.45368846
  entropy T*S    EENTRO =         0.02570444
  eigenvalues    EBANDS =      -281.70973782
  atomic energy  EATOM  =      1004.25233184
  ---------------------------------------------------
  free energy    TOTEN  =       -28.37965901 eV

  energy without entropy =      -28.40536345  energy(sigma->0) =      -28.38822715
  exchange ACFDT corr.  =         0.01417397  see jH, gK, PRB 81, 115126


--------------------------------------------------------------------------------------------------------




--------------------------------------- Iteration      1(  29)  ---------------------------------------


    POTLOK:  cpu time      0.0918: real time      0.0918
    SETDIJ:  cpu time      0.0587: real time      0.0587
    TRIAL :  cpu time      0.0337: real time      0.0338
    CORREC:  cpu time      0.2049: real time      0.2050
    CHARGE:  cpu time      0.0230: real time      0.0230
    --------------------------------------------
      LOOP:  cpu time      0.4146: real time      0.4167

 eigenvalue-minimisations  :     0
 total energy-change (2. order) :-0.1483363E-07  (-0.4807459E-08)
 number of electron      16.0000000 magnetization 
 augmentation part        1.3383893 magnetization 

 Free energy of the ion-electron system (eV)
  ---------------------------------------------------
  alpha Z        PSCENC =         1.06967730
  Ewald energy   TEWEN  =       302.25367573
  -Hartree energ DENC   =     -1152.08579152
  -exchange      EXHF   =        46.75852869
  -V(xc)+E(xc)   XCENC  =        53.59548890
  PAW double counting   =      1671.91514927    -1674.45483204
  entropy T*S    EENTRO =         0.02570288
  eigenvalues    EBANDS =      -281.70959163
  atomic energy  EATOM  =      1004.25233184
  ---------------------------------------------------
  free energy    TOTEN  =       -28.37965902 eV

  energy without entropy =      -28.40536190  energy(sigma->0) =      -28.38822665
  exchange ACFDT corr.  =         0.01416329  see jH, gK, PRB 81, 115126


--------------------------------------------------------------------------------------------------------




--------------------------------------- Iteration      1(  30)  ---------------------------------------


    POTLOK:  cpu time      0.0919: real time      0.0919
    SETDIJ:  cpu time      0.0590: real time      0.0590
    TRIAL :  cpu time      0.0338: real time      0.0339
    CORREC:  cpu time      0.2052: real time      0.2053
    EDDIAG:  cpu time      0.0325: real time      0.0326
    CHARGE:  cpu time      0.0228: real time      0.0228
    --------------------------------------------
      LOOP:  cpu time      0.4466: real time      0.4497

 eigenvalue-minimisations  :     0
 total energy-change (2. order) :-0.5023594E-08  (-0.4731102E-08)
 number of electron      16.0000000 magnetization 
 augmentation part        1.3383888 magnetization 

 Free energy of the ion-electron system (eV)
  ---------------------------------------------------
  alpha Z        PSCENC =         1.06967730
  Ewald energy   TEWEN  =       302.25367573
  -Hartree energ DENC   =     -1152.08557874
  -exchange      EXHF   =        46.75851219
  -V(xc)+E(xc)   XCENC  =        53.59548119
  PAW double counting   =      1671.91092518    -1674.45061104
  entropy T*S    EENTRO =         0.02570139
  eigenvalues    EBANDS =      -281.70978151
  atomic energy  EATOM  =      1004.25233184
  ---------------------------------------------------
  free energy    TOTEN  =       -28.37965903 eV

  energy without entropy =      -28.40536042  energy(sigma->0) =      -28.38822616
  exchange ACFDT corr.  =         0.01415828  see jH, gK, PRB 81, 115126


--------------------------------------------------------------------------------------------------------


  average scaling for gradient   1.3519


 average (electrostatic) potential at core
  the test charge radii are     0.6991  0.7215
  (the norm of the test charge is              1.0000)
       1 -59.9966       2 -76.3450       3 -76.3450
 
 
 
 E-fermi :  -9.9201     XC(G=0):  -0.6284     alpha+bet : -0.2500

 Fermi energy:        -9.9201119775

 k-point     1 :       0.0000    0.0000    0.0000
  band No.  band energies     occupation 
      1     -32.0979      2.00000
      2     -30.9407      2.00000
      3     -15.3416      2.00000
      4     -14.0988      2.00000
      5     -14.0856      2.00000
      6     -14.0704      2.00000
      7     -10.1536      2.06981
      8     -10.0632      1.93019
      9      -0.5709      0.00000
     10       0.6583      0.00000
     11       0.6646      0.00000
     12       0.8309      0.00000


--------------------------------------------------------------------------------------------------------


 soft charge-density along one line, spin component           1
         0         1         2         3         4         5         6         7         8         9
 total charge-density along one line
 
 pseudopotential strength for first ion, spin component:           1
 10.288  13.687   0.000   0.000  -0.000  -0.000  -0.000   0.000
 13.687  18.207   0.000   0.000  -0.000  -0.000  -0.000   0.000
  0.000   0.000  -4.461  -0.000   0.000   8.699   0.000  -0.000
  0.000   0.000  -0.000  -4.496  -0.000   0.000   8.754   0.000
 -0.000  -0.000   0.000  -0.000  -4.461  -0.000   0.000   8.698
 -0.000  -0.000   8.699   0.000  -0.000 -19.093  -0.000   0.000
 -0.000  -0.000   0.000   8.754   0.000  -0.000 -19.178  -0.000
  0.000   0.000  -0.000   0.000   8.698   0.000  -0.000 -19.092
 total augmentation occupancy for first ion, spin component:           1
 12.506  -6.417   0.000   0.000  -0.000   0.000   0.000  -0.000
 -6.417   3.476  -0.000  -0.000   0.000  -0.000  -0.000   0.000
  0.000  -0.000   1.225  -0.000  -0.002   0.091  -0.000  -0.000
  0.000  -0.000  -0.000   2.650   0.000  -0.000   0.338   0.000
 -0.000   0.000  -0.002   0.000   1.220  -0.000   0.000   0.091
  0.000  -0.000   0.091  -0.000  -0.000   0.007  -0.000   0.000
  0.000  -0.000  -0.000   0.338   0.000  -0.000   0.052   0.000
 -0.000   0.000  -0.000   0.000   0.091   0.000   0.000   0.007


------------------------ aborting loop because EDIFF is reached ----------------------------------------


    FORLOC:  cpu time      0.0045: real time      0.0045
    FORHF :  cpu time      0.0236: real time      0.0236
    FORNL :  cpu time      0.1583: real time      0.1584
    STRESS:  cpu time      0.5059: real time      0.5059
    FORCOR:  cpu time      0.0954: real time      0.0954
    OFIELD:  cpu time      0.0003: real time      0.0003

  FORCE on cell =-STRESS in cart. coord.  units (eV):
  Direction    XX          YY          ZZ          XY          YZ          ZX
  --------------------------------------------------------------------------------------
  Alpha Z     1.06968     1.06968     1.06968
  Ewald    -177.79805  -177.79805   657.84963     0.00000     0.00002     0.00010
  Hartree   248.91090   247.12985   656.04479     0.69060     0.00001     0.00004
  E(xc)     -56.72524   -56.73789   -55.64832     0.00505     0.00000     0.00000
  Local    -308.70453  -303.92906 -1475.58071    -1.88574    -0.00002    -0.00013
  n-local   -39.02427   -38.51097   -43.81285    -0.20491     0.00000    -0.00000
  augment    12.71046    12.29886     9.77678     0.16429    -0.00002    -0.00002
  Kinetic   345.35579   341.99630   279.75782     1.34072    -0.00001    -0.00001
  Fock      -26.14713   -25.86318   -29.74318    -0.11323    -0.00000    -0.00000
  -------------------------------------------------------------------------------------
  Total      -0.35240    -0.34447    -0.28636    -0.00322    -0.00002    -0.00002
  in kB      -0.56461    -0.55189    -0.45881    -0.00516    -0.00003    -0.00002
  external pressure =       -0.53 kB  Pullay stress =        0.00 kB


 VOLUME and BASIS-vectors are now :
 -----------------------------------------------------------------------------
  energy-cutoff  :      450.00
  volume of cell :     1000.00
      direct lattice vectors                 reciprocal lattice vectors
    10.000000000  0.000000000  0.000000000     0.100000000  0.000000000  0.000000000
     0.000000000 10.000000000  0.000000000     0.000000000  0.100000000  0.000000000
     0.000000000  0.000000000 10.000000000     0.000000000  0.000000000  0.100000000

  length of vectors
    10.000000000 10.000000000 10.000000000     0.100000000  0.100000000  0.100000000


 FORCES acting on ions:
    Electron-Ion                     Ewald-Force                    Non-Local-Force
 -----------------------------------------------------------------------------------------------
   -.685E-06 -.134E-04 0.509E-05   0.685E-05 0.119E-04 -.981E-05   -.403E-05 0.200E-05 0.366E-05
   -.291E-04 -.221E-05 -.276E+03   0.387E-04 0.298E-05 0.343E+03   -.324E-05 -.687E-06 -.587E+02
   0.414E-04 0.150E-04 0.276E+03   -.456E-04 -.149E-04 -.343E+03   0.725E-05 -.534E-06 0.587E+02
 -----------------------------------------------------------------------------------------------
   0.116E-04 -.657E-06 0.255E-05   -.238E-16 -.344E-16 0.000E+00   -.104E-07 0.778E-06 0.180E-05
 
 
 POSITION                                       TOTAL-FORCE (eV/Angst)
 -----------------------------------------------------------------------------------
      5.00000      5.00000      5.00000        -0.000002      0.000001     -0.000002
      5.00000      5.00000      6.16346         0.000002     -0.000000      0.000254
      5.00000      5.00000      3.83654         0.000000     -0.000000     -0.000252
 -----------------------------------------------------------------------------------
    total drift:                                0.000012     -0.000000      0.000004


--------------------------------------------------------------------------------------------------------



  FREE ENERGIE OF THE ION-ELECTRON SYSTEM (eV)
  ---------------------------------------------------
  free  energy   TOTEN  =       -28.37965903 eV

  energy  without entropy=      -28.40536042  energy(sigma->0) =      -28.38822616
 

[...]
 number of electron      16.0000001 magnetization 
 augmentation part        1.3279863 magnetization 

 Free energy of the ion-electron system (eV)
  ---------------------------------------------------
  alpha Z        PSCENC =         1.06967730
  Ewald energy   TEWEN  =       295.48900449
  -Hartree energ DENC   =     -1145.90665300
  -exchange      EXHF   =        46.61925224
  -V(xc)+E(xc)   XCENC  =        53.47690790
  PAW double counting   =      1634.04379252    -1636.55938199
  entropy T*S    EENTRO =         0.02569713
  eigenvalues    EBANDS =      -280.87024251
  atomic energy  EATOM  =      1004.25233184
  ---------------------------------------------------
  free energy    TOTEN  =       -28.35961414 eV

  energy without entropy =      -28.38531127  energy(sigma->0) =      -28.36817985
  exchange ACFDT corr.  =         0.01414499  see jH, gK, PRB 81, 115126


--------------------------------------------------------------------------------------------------------




--------------------------------------- Iteration     19(  16)  ---------------------------------------


    POTLOK:  cpu time      0.0920: real time      0.0920
    SETDIJ:  cpu time      0.0587: real time      0.0587
    TRIAL :  cpu time      0.0335: real time      0.0338
    CORREC:  cpu time      0.2059: real time      0.2062
    CHARGE:  cpu time      0.0230: real time      0.0230
    --------------------------------------------
      LOOP:  cpu time      0.4147: real time      0.4184

 eigenvalue-minimisations  :     0
 total energy-change (2. order) :-0.4461685E-07  (-0.1932957E-07)
 number of electron      16.0000001 magnetization 
 augmentation part        1.3279859 magnetization 

 Free energy of the ion-electron system (eV)
  ---------------------------------------------------
  alpha Z        PSCENC =         1.06967730
  Ewald energy   TEWEN  =       295.48900449
  -Hartree energ DENC   =     -1145.90537915
  -exchange      EXHF   =        46.61920357
  -V(xc)+E(xc)   XCENC  =        53.47685670
  PAW double counting   =      1634.03505253    -1636.55062922
  entropy T*S    EENTRO =         0.02569718
  eigenvalues    EBANDS =      -280.87142937
  atomic energy  EATOM  =      1004.25233184
  ---------------------------------------------------
  free energy    TOTEN  =       -28.35961419 eV

  energy without entropy =      -28.38531137  energy(sigma->0) =      -28.36817992
  exchange ACFDT corr.  =         0.01414521  see jH, gK, PRB 81, 115126


--------------------------------------------------------------------------------------------------------




--------------------------------------- Iteration     19(  17)  ---------------------------------------


    POTLOK:  cpu time      0.0920: real time      0.0920
    SETDIJ:  cpu time      0.0588: real time      0.0588
    TRIAL :  cpu time      0.0337: real time      0.0340
    CORREC:  cpu time      0.2046: real time      0.2048
    CHARGE:  cpu time      0.0230: real time      0.0230
    --------------------------------------------
      LOOP:  cpu time      0.4147: real time      0.4167

 eigenvalue-minimisations  :     0
 total energy-change (2. order) :-0.1823014E-07  (-0.7791528E-08)
 number of electron      16.0000001 magnetization 
 augmentation part        1.3279852 magnetization 

 Free energy of the ion-electron system (eV)
  ---------------------------------------------------
  alpha Z        PSCENC =         1.06967730
  Ewald energy   TEWEN  =       295.48900449
  -Hartree energ DENC   =     -1145.90578756
  -exchange      EXHF   =        46.61921951
  -V(xc)+E(xc)   XCENC  =        53.47686936
  PAW double counting   =      1634.02816713    -1636.54373734
  entropy T*S    EENTRO =         0.02569723
  eigenvalues    EBANDS =      -280.87105613
  atomic energy  EATOM  =      1004.25233184
  ---------------------------------------------------
  free energy    TOTEN  =       -28.35961421 eV

  energy without entropy =      -28.38531144  energy(sigma->0) =      -28.36817995
  exchange ACFDT corr.  =         0.01414541  see jH, gK, PRB 81, 115126


--------------------------------------------------------------------------------------------------------




--------------------------------------- Iteration     19(  18)  ---------------------------------------


    POTLOK:  cpu time      0.0920: real time      0.0920
    SETDIJ:  cpu time      0.0588: real time      0.0588
    TRIAL :  cpu time      0.0337: real time      0.0339
    CORREC:  cpu time      0.2053: real time      0.2056
    EDDIAG:  cpu time      0.0308: real time      0.0310
    CHARGE:  cpu time      0.0228: real time      0.0228
    --------------------------------------------
      LOOP:  cpu time      0.4445: real time      0.4485

 eigenvalue-minimisations  :     0
 total energy-change (2. order) :-0.7181598E-08  (-0.5528662E-08)
 number of electron      16.0000001 magnetization 
 augmentation part        1.3279829 magnetization 

 Free energy of the ion-electron system (eV)
  ---------------------------------------------------
  alpha Z        PSCENC =         1.06967730
  Ewald energy   TEWEN  =       295.48900449
  -Hartree energ DENC   =     -1145.90592709
  -exchange      EXHF   =        46.61922622
  -V(xc)+E(xc)   XCENC  =        53.47687839
  PAW double counting   =      1634.02147099    -1636.53703203
  entropy T*S    EENTRO =         0.02569727
  eigenvalues    EBANDS =      -280.87095039
  atomic energy  EATOM  =      1004.25233184
  ---------------------------------------------------
  free energy    TOTEN  =       -28.35961421 eV

  energy without entropy =      -28.38531149  energy(sigma->0) =      -28.36817997
  exchange ACFDT corr.  =         0.01414559  see jH, gK, PRB 81, 115126


--------------------------------------------------------------------------------------------------------


  average scaling for gradient   0.5026


 average (electrostatic) potential at core
  the test charge radii are     0.6991  0.7215
  (the norm of the test charge is              1.0000)
       1 -60.0442       2 -76.4587       3 -76.2556
 
 
 
 E-fermi :  -9.9053     XC(G=0):  -0.6312     alpha+bet : -0.2500

 Fermi energy:        -9.9053450134

 k-point     1 :       0.0000    0.0000    0.0000
  band No.  band energies     occupation 
      1     -32.0095      2.00000
      2     -30.7749      2.00000
      3     -15.3975      2.00000
      4     -14.0605      2.00000
      5     -14.0082      2.00000
      6     -13.9947      2.00000
      7     -10.1385      2.06976
      8     -10.0484      1.93024
      9      -0.5946      0.00000
     10       0.4793      0.00000
     11       0.4854      0.00000
     12       0.8120      0.00000


--------------------------------------------------------------------------------------------------------


 soft charge-density along one line, spin component           1
         0         1         2         3         4         5         6         7         8         9
 total charge-density along one line
 
 pseudopotential strength for first ion, spin component:           1
 10.289  13.688   0.000   0.001  -0.000  -0.000  -0.004   0.000
 13.688  18.209   0.000   0.001  -0.000  -0.000  -0.005   0.000
  0.000   0.000  -4.465  -0.000  -0.000   8.709   0.000   0.000
  0.001   0.001  -0.000  -4.498  -0.000   0.000   8.759   0.000
 -0.000  -0.000  -0.000  -0.000  -4.465   0.000   0.000   8.708
 -0.000  -0.000   8.709   0.000   0.000 -19.115  -0.000  -0.000
 -0.004  -0.005   0.000   8.759   0.000  -0.000 -19.191  -0.000
  0.000   0.000   0.000   0.000   8.708  -0.000  -0.000 -19.115
 total augmentation occupancy for first ion, spin component:           1
 12.070  -6.158  -0.000   0.144  -0.000  -0.000   0.023  -0.000
 -6.158   3.327  -0.000  -0.089   0.000   0.000  -0.015   0.000
 -0.000  -0.000   1.207   0.000   0.000   0.089   0.000   0.000
  0.144  -0.089   0.000   2.598   0.000   0.000   0.330   0.000
 -0.000   0.000   0.000   0.000   1.201   0.000   0.000   0.089
 -0.000   0.000   0.089   0.000   0.000   0.007   0.000  -0.000
  0.023  -0.015   0.000   0.330   0.000   0.000   0.050   0.000
 -0.000   0.000   0.000   0.000   0.089  -0.000   0.000   0.007


------------------------ aborting loop because EDIFF is reached ----------------------------------------


    FORLOC:  cpu time      0.0017: real time      0.0017
    FORHF :  cpu time      0.0196: real time      0.0196
    FORNL :  cpu time      0.1559: real time      0.1559
    STRESS:  cpu time      0.4973: real time      0.4973
    FORCOR:  cpu time      0.0928: real time      0.0928
    OFIELD:  cpu time      0.0003: real time      0.0003

  FORCE on cell =-STRESS in cart. coord.  units (eV):
  Direction    XX          YY          ZZ          XY          YZ          ZX
  --------------------------------------------------------------------------------------
  Alpha Z     1.06968     1.06968     1.06968
  Ewald    -177.84906  -177.84906   651.18695     0.00000     0.00002     0.00009
  Hartree   247.27071   245.00709   653.62791    -0.07063     0.00001     0.00004
  E(xc)     -56.60045   -56.61662   -55.52788    -0.00052     0.00000     0.00000
  Local    -307.07300  -300.99564 -1468.33930     0.19313    -0.00003    -0.00013
  n-local   -38.98203   -38.32628   -43.56219     0.02107     0.00000    -0.00000
  augment    12.73286    12.20866     9.79468    -0.01684    -0.00001    -0.00002
  Kinetic   345.14873   340.86806   278.49551    -0.13749    -0.00000    -0.00001
  Fock      -26.07195   -25.71021   -29.53577     0.01161    -0.00000    -0.00000
  -------------------------------------------------------------------------------------
  Total      -0.35451    -0.34432    -2.79040     0.00033    -0.00001    -0.00002
  in kB      -0.56799    -0.55166    -4.47072     0.00052    -0.00002    -0.00003
  external pressure =       -1.86 kB  Pullay stress =        0.00 kB


 VOLUME and BASIS-vectors are now :
 -----------------------------------------------------------------------------
  energy-cutoff  :      450.00
  volume of cell :     1000.00
      direct lattice vectors                 reciprocal lattice vectors
    10.000000000  0.000000000  0.000000000     0.100000000  0.000000000  0.000000000
     0.000000000 10.000000000  0.000000000     0.000000000  0.100000000  0.000000000
     0.000000000  0.000000000 10.000000000     0.000000000  0.000000000  0.100000000

  length of vectors
    10.000000000 10.000000000 10.000000000     0.100000000  0.100000000  0.100000000


 FORCES acting on ions:
    Electron-Ion                     Ewald-Force                    Non-Local-Force
 -----------------------------------------------------------------------------------------------
   -.539E-05 -.118E-04 0.667E+01   0.513E-05 0.113E-04 -.859E+01   -.180E-06 0.166E-06 0.103E+00
   -.311E-04 -.266E-05 -.274E+03   0.384E-04 0.292E-05 0.342E+03   -.523E-05 0.109E-05 -.587E+02
   0.349E-04 0.110E-04 0.269E+03   -.435E-04 -.142E-04 -.333E+03   0.690E-05 0.184E-05 0.575E+02
 -----------------------------------------------------------------------------------------------
   -.161E-05 -.347E-05 0.121E+01   -.234E-16 -.357E-16 0.000E+00   0.149E-05 0.309E-05 -.107E+01
 
 
 POSITION                                       TOTAL-FORCE (eV/Angst)
 -----------------------------------------------------------------------------------
      5.00000      5.00000      5.00000        -0.000000     -0.000000     -1.795810
      5.00000      5.00000      6.16346         0.000001      0.000001     -0.161829
      5.00000      5.00000      3.81654        -0.000001     -0.000001      1.957639
 -----------------------------------------------------------------------------------
    total drift:                                0.000000      0.000000      0.000598


--------------------------------------------------------------------------------------------------------



  FREE ENERGIE OF THE ION-ELECTRON SYSTEM (eV)
  ---------------------------------------------------
  free  energy   TOTEN  =       -28.35961421 eV

  energy  without entropy=      -28.38531149  energy(sigma->0) =      -28.36817997
 
 d Force = 0.5936092E-02[-0.783E-01, 0.902E-01]  d Energy = 0.1970486E-02 0.397E-02
 d Force = 0.1374641E+02[ 0.133E+02, 0.142E+02]  d Ewald  = 0.1373982E+02 0.660E-02


--------------------------------------------------------------------------------------------------------


    POTLOK:  cpu time      0.1507: real time      0.1507


--------------------------------------------------------------------------------------------------------


 Finite differences progress:
  Degree of freedom:   9/  9
  Displacement:        2/  2
  Total:              18/ 18


--------------------------------------------------------------------------------------------------------


 INTERNAL STRAIN TENSORS FROM DISPLACED ATOMS
 ============================================

 INTERNAL STRAIN TENSOR FOR ION    1 for displacements in x,y,z  (eV/Angst):
          X           Y           Z          XY          YZ          ZX
  --------------------------------------------------------------------------------
  x    -0.01837     0.00820    -0.00146     0.00638     0.00000    -0.00000
  y     0.25630    -0.26901     0.01459    -0.02035    -0.00004     0.00004
  z    -0.00271    -0.00305     0.00015    -0.00002    -0.00065    -0.00000

 INTERNAL STRAIN TENSOR FOR ION    2 for displacements in x,y,z  (eV/Angst):
          X           Y           Z          XY          YZ          ZX
  --------------------------------------------------------------------------------
  x    -0.25362     0.25426     0.00248    -0.01706    -0.00017     0.02457
  y     0.02813    -0.03757     0.00118     0.02432     0.02508    -0.00082
  z    -0.04708    -0.04807  -131.87349     0.00001     0.00108     0.00000

 INTERNAL STRAIN TENSOR FOR ION    3 for displacements in x,y,z  (eV/Angst):
          X           Y           Z          XY          YZ          ZX
  --------------------------------------------------------------------------------
  x    -0.21329     0.21235     0.00555    -0.04526     0.00070    -0.02644
  y    -0.00959     0.02147    -0.00032     0.02846    -0.02357     0.00041
  z     0.04925     0.04296   131.86927    -0.00018    -0.00279     0.00000


--------------------------------------------------------------------------------------------------------


 
 Eigenvectors and eigenvalues of the dynamical matrix
 ----------------------------------------------------
 
 
   1 f  =   73.710850 THz   463.138932 2PiTHz 2458.729313 cm-1   304.843445 meV
             X         Y         Z           dx          dy          dz
      5.000000  5.000000  5.000000     0.000000    0.000002    0.852693  
      5.000000  5.000000  6.163462    -0.000003   -0.000004   -0.369392  
      5.000000  5.000000  3.836538    -0.000008    0.000000   -0.369409  
 
   2 f  =   41.640288 THz   261.633646 2PiTHz 1388.970501 cm-1   172.210317 meV
             X         Y         Z           dx          dy          dz
      5.000000  5.000000  5.000000     0.000017    0.000058    0.000045  
      5.000000  5.000000  6.163462     0.000016    0.000011   -0.707071  
      5.000000  5.000000  3.836538     0.000003   -0.000003    0.707143  
 
   3 f  =   20.119363 THz   126.413683 2PiTHz  671.109695 cm-1    83.206960 meV
             X         Y         Z           dx          dy          dz
      5.000000  5.000000  5.000000     0.000753    0.854431    0.000012  
      5.000000  5.000000  6.163462     0.000587   -0.367690    0.000050  
      5.000000  5.000000  3.836538     0.001734   -0.367079   -0.000015  
 
   4 f  =   20.044275 THz   125.941896 2PiTHz  668.605055 cm-1    82.896424 meV
             X         Y         Z           dx          dy          dz
      5.000000  5.000000  5.000000     0.850618    0.000860   -0.000004  
      5.000000  5.000000  6.163462    -0.371418    0.001244    0.000007  
      5.000000  5.000000  3.836538    -0.372150    0.000149   -0.000004  
 
   5 f  =    0.482086 THz     3.029034 2PiTHz   16.080647 cm-1     1.993745 meV
             X         Y         Z           dx          dy          dz
      5.000000  5.000000  5.000000     0.037912    0.012411   -0.018759  
      5.000000  5.000000  6.163462    -0.146679   -0.663399   -0.021658  
      5.000000  5.000000  3.836538     0.231134    0.694323   -0.021641  
 
   6 f  =    0.237864 THz     1.494543 2PiTHz    7.934287 cm-1     0.983726 meV
             X         Y         Z           dx          dy          dz
      5.000000  5.000000  5.000000     0.366513    0.162474    0.020002  
      5.000000  5.000000  6.163462    -0.005587    0.350661    0.023092  
      5.000000  5.000000  3.836538     0.844871    0.031675    0.023057  
 
   7 f/i=    0.019022 THz     0.119520 2PiTHz    0.634512 cm-1     0.078669 meV
             X         Y         Z           dx          dy          dz
      5.000000  5.000000  5.000000     0.013352    0.017774   -0.521509  
      5.000000  5.000000  6.163462     0.014766    0.049204   -0.601950  
      5.000000  5.000000  3.836538     0.015984   -0.007861   -0.601858  
 
   8 f/i=    0.072826 THz     0.457580 2PiTHz    2.429216 cm-1     0.301184 meV
             X         Y         Z           dx          dy          dz
      5.000000  5.000000  5.000000     0.213882   -0.475530   -0.010768  
      5.000000  5.000000  6.163462     0.237586   -0.545732   -0.012447  
      5.000000  5.000000  3.836538     0.248601   -0.558236   -0.012412  
 
   9 f/i=    0.320998 THz     2.016893 2PiTHz   10.707357 cm-1     1.327542 meV
             X         Y         Z           dx          dy          dz
      5.000000  5.000000  5.000000     0.307823    0.130190    0.008607  
      5.000000  5.000000  6.163462     0.885346    0.038699    0.009951  
      5.000000  5.000000  3.836538    -0.179480    0.265473    0.009913  
 

 ELASTIC MODULI CONTR FROM IONIC RELAXATION (kBar)
 Direction    XX          YY          ZZ          XY          YZ          ZX
 --------------------------------------------------------------------------------
 XX          -7.0544      6.5242     -0.0297     -1.6490      0.3575     -1.2993
 YY           6.5242     -6.0627     -0.3106      1.5186     -0.2704      1.2063
 ZZ          -0.0297     -0.3106   -490.9065      0.0348      0.0056      0.0281
 XY          -1.6490      1.5186      0.0348     -0.3874      0.0970     -0.3029
 YZ           0.3575     -0.2704      0.0056      0.0970     -0.1455      0.0558
 ZX          -1.2993      1.2063      0.0281     -0.3029      0.0558     -0.2403
 --------------------------------------------------------------------------------



--------------------------------------------------------------------------------------------------------


 writing wavefunctions
     LOOP+:  cpu time      8.5225: real time      8.5864
    4ORBIT:  cpu time      0.0000: real time      0.0000

 total amount of memory used by VASP MPI-rank0    47292. kBytes
=======================================================================

   base      :      30000. kBytes
   nonl-proj :        118. kBytes
   fftplans  :       8021. kBytes
   grid      :       4312. kBytes
   one-center:          1. kBytes
   HF        :          4. kBytes
   nonlr-proj:          0. kBytes
   wavefun   :         96. kBytes
   fock_wrk  :       4740. kBytes
 
  
  
 General timing and accounting informations for this job:
 ========================================================
  
                  Total CPU time used (sec):      307.845
                            User time (sec):      302.634
                          System time (sec):        5.211
                         Elapsed time (sec):      311.003
  
                   Maximum memory used (kb):      424704.
                   Average memory used (kb):          N/A
  
                          Minor page faults:       372586
                          Major page faults:            1
                 Voluntary context switches:        25018
