<?xml version="1.0" encoding="ISO-8859-1"?>
<modeling>
 <generator>
  <i name="program" type="string">vasp </i>
  <i name="version" type="string">6.3.0  </i>
  <i name="subversion" type="string">20Jan22 (build Mar 21 2022 10:48:19) gamma-only                       parallel </i>
  <i name="platform" type="string">TEST </i>
  <i name="date" type="string">2022 06 29 </i>
  <i name="time" type="string">18:03:46 </i>
 </generator>
 <incar>
  <i type="string" name="PREC">ACCURATE</i>
  <i type="string" name="ALGO">ALL</i>
  <i type="logical" name="ADDGRID"> T  </i>
  <i type="int" name="NELM">   200</i>
  <i type="int" name="NELMIN">     5</i>
  <i type="int" name="IBRION">     6</i>
  <i name="EDIFF">      0.00000001</i>
  <i name="EDIFFG">     -0.00001000</i>
  <i type="int" name="NSW">     1</i>
  <i type="int" name="ISIF">     2</i>
  <i type="int" name="ISYM">     0</i>
  <i name="ENCUT">    450.00000000</i>
  <i name="POTIM">      0.02000000</i>
  <i type="logical" name="LREAL"> F  </i>
  <i name="HFSCREEN">      0.20000000</i>
  <i type="logical" name="LHFCALC"> T  </i>
  <i type="string" name="GGA">PE</i>
 </incar>
 <primitive_cell>
  <structure name="primitive_cell" >
   <crystal>
    <varray name="basis" >
     <v>      10.00000000       0.00000000       0.00000000 </v>
     <v>       0.00000000      10.00000000       0.00000000 </v>
     <v>       0.00000000       0.00000000      10.00000000 </v>
    </varray>
    <i name="volume">   1000.00000000 </i>
    <varray name="rec_basis" >
     <v>       0.10000000       0.00000000       0.00000000 </v>
     <v>       0.00000000       0.10000000       0.00000000 </v>
     <v>       0.00000000       0.00000000       0.10000000 </v>
    </varray>
   </crystal>
   <varray name="positions" >
    <v>       0.50000000       0.50000000       0.50000000 </v>
    <v>       0.50000001       0.50000000       0.61634621 </v>
    <v>       0.49999999       0.50000000       0.38365379 </v>
   </varray>
  </structure>
  <varray name="primitive_index" >
   <v type="int" >        1 </v>
   <v type="int" >        2 </v>
   <v type="int" >        3 </v>
  </varray>
 </primitive_cell>
 <kpoints>
  <generation param="Gamma">
   <v type="int" name="divisions">       1        1        1 </v>
   <v name="usershift">      0.00000000       0.00000000       0.00000000 </v>
   <v name="genvec1">      1.00000000       0.00000000       0.00000000 </v>
   <v name="genvec2">      0.00000000       1.00000000       0.00000000 </v>
   <v name="genvec3">      0.00000000       0.00000000       1.00000000 </v>
   <v name="shift">      0.00000000       0.00000000       0.00000000 </v>
  </generation>
  <varray name="kpointlist" >
   <v>       0.00000000       0.00000000       0.00000000 </v>
  </varray>
  <varray name="weights" >
   <v>       1.00000000 </v>
  </varray>
 </kpoints>
 <parameters>
  <separator name="general" >
   <i type="string" name="SYSTEM">unknown system</i>
   <i type="logical" name="LCOMPAT"> F  </i>
  </separator>
  <separator name="electronic" >
   <i type="string" name="PREC">accura</i>
   <i name="ENMAX">    450.00000000</i>
   <i name="ENAUG">    644.87300000</i>
   <i name="EDIFF">      0.00000001</i>
   <i type="int" name="IALGO">    58</i>
   <i type="int" name="IWAVPR">    11</i>
   <i type="int" name="NBANDS">    12</i>
   <i type="int" name="NBANDSLOW">    -1</i>
   <i type="int" name="NBANDSHIGH">    -1</i>
   <i name="NELECT">     16.00000000</i>
   <i type="int" name="TURBO">     0</i>
   <i type="int" name="IRESTART">     0</i>
   <i type="int" name="NREBOOT">     0</i>
   <i type="int" name="NMIN">     0</i>
   <i name="EREF">      0.00000000</i>
   <separator name="electronic smearing" >
    <i type="int" name="ISMEAR">     1</i>
    <i name="SIGMA">      0.20000000</i>
    <i name="KSPACING">      0.50000000</i>
    <i type="logical" name="KGAMMA"> T  </i>
    <i type="logical" name="KBLOWUP"> T  </i>
   </separator>
   <separator name="electronic projectors" >
    <i type="logical" name="LREAL"> F  </i>
    <v name="ROPT">      0.00000000      0.00000000</v>
    <i type="int" name="LMAXPAW">  -100</i>
    <i type="int" name="LMAXMIX">     2</i>
    <i type="logical" name="NLSPLINE"> F  </i>
   </separator>
   <separator name="electronic startup" >
    <i type="int" name="ISTART">     0</i>
    <i type="int" name="ICHARG">     2</i>
    <i type="int" name="INIWAV">     1</i>
   </separator>
   <separator name="electronic spin" >
    <i type="int" name="ISPIN">     1</i>
    <i type="logical" name="LNONCOLLINEAR"> F  </i>
    <v name="MAGMOM">      1.00000000      1.00000000      1.00000000</v>
    <i name="NUPDOWN">     -1.00000000</i>
    <i type="logical" name="LSORBIT"> F  </i>
    <v name="SAXIS">      0.00000000      0.00000000      1.00000000</v>
    <i type="logical" name="LSPIRAL"> F  </i>
    <v name="QSPIRAL">      0.00000000      0.00000000      0.00000000</v>
    <i type="logical" name="LZEROZ"> F  </i>
   </separator>
   <separator name="electronic exchange-correlation" >
    <i type="logical" name="LASPH"> F  </i>
    <i type="logical" name="LMETAGGA"> F  </i>
   </separator>
   <separator name="electronic convergence" >
    <i type="int" name="NELM">   200</i>
    <i type="int" name="NELMDL">    -5</i>
    <i type="int" name="NELMIN">     5</i>
    <i name="ENINI">    450.00000000</i>
    <separator name="electronic convergence detail" >
     <i type="logical" name="LDIAG"> T  </i>
     <i type="logical" name="LSUBROT"> F  </i>
     <i name="WEIMIN">      0.00100000</i>
     <i name="EBREAK">      0.00000000</i>
     <i name="DEPER">      0.30000000</i>
     <i type="int" name="NRMM">     4</i>
     <i name="TIME">      0.40000000</i>
    </separator>
   </separator>
   <separator name="electronic mixer" >
    <i name="AMIX">      0.40000000</i>
    <i name="BMIX">      1.00000000</i>
    <i name="AMIN">      0.10000000</i>
    <i name="AMIX_MAG">      1.60000000</i>
    <i name="BMIX_MAG">      1.00000000</i>
    <separator name="electronic mixer details" >
     <i type="int" name="IMIX">     4</i>
     <i type="logical" name="MIXFIRST"> F  </i>
     <i type="int" name="MAXMIX">   -45</i>
     <i name="WC">    100.00000000</i>
     <i type="int" name="INIMIX">     1</i>
     <i type="int" name="MIXPRE">     1</i>
     <i type="int" name="MREMOVE">     5</i>
    </separator>
   </separator>
   <separator name="electronic dipolcorrection" >
    <i type="logical" name="LDIPOL"> F  </i>
    <i type="logical" name="LMONO"> F  </i>
    <i type="int" name="IDIPOL">     0</i>
    <i name="EPSILON">      1.00000000</i>
    <v name="DIPOL">   -100.00000000   -100.00000000   -100.00000000</v>
    <i name="EFIELD">      0.00000000</i>
   </separator>
  </separator>
  <separator name="grids" >
   <i type="int" name="NGX">    70</i>
   <i type="int" name="NGY">    70</i>
   <i type="int" name="NGZ">    70</i>
   <i type="int" name="NGXF">   140</i>
   <i type="int" name="NGYF">   140</i>
   <i type="int" name="NGZF">   140</i>
   <i type="logical" name="ADDGRID"> T  </i>
  </separator>
  <separator name="ionic" >
   <i type="int" name="NSW">    73</i>
   <i type="int" name="IBRION">     6</i>
   <i type="int" name="MDALGO">     0</i>
   <i type="int" name="ISIF">     2</i>
   <i name="PSTRESS">      0.00000000</i>
   <i name="EDIFFG">     -0.00001000</i>
   <i type="int" name="NFREE">     2</i>
   <i name="POTIM">      0.02000000</i>
   <i name="SMASS">     -3.00000000</i>
   <i name="SCALEE">      1.00000000</i>
  </separator>
  <separator name="ionic md" >
   <i name="TEBEG">      0.00010000</i>
   <i name="TEEND">      0.00010000</i>
   <i type="int" name="NBLOCK">     1</i>
   <i type="int" name="KBLOCK">    73</i>
   <i type="int" name="NPACO">   256</i>
   <i name="APACO">     10.00000000</i>
  </separator>
  <separator name="symmetry" >
   <i type="int" name="ISYM">     0</i>
   <i name="SYMPREC">      0.00001000</i>
  </separator>
  <separator name="dos" >
   <i type="int" name="LORBIT">     0</i>
   <v name="RWIGS">     -1.00000000     -1.00000000</v>
   <i type="int" name="NEDOS">   301</i>
   <i name="EMIN">     10.00000000</i>
   <i name="EMAX">    -10.00000000</i>
   <i name="EFERMI">      0.00000000</i>
  </separator>
  <separator name="writing" >
   <i type="int" name="NWRITE">     2</i>
   <i type="logical" name="LWAVE"> T  </i>
   <i type="logical" name="LDOWNSAMPLE"> F  </i>
   <i type="logical" name="LCHARG"> T  </i>
   <i type="logical" name="LPARD"> F  </i>
   <i type="logical" name="LVTOT"> F  </i>
   <i type="logical" name="LVHAR"> F  </i>
   <i type="logical" name="LELF"> F  </i>
   <i type="logical" name="LOPTICS"> F  </i>
   <v name="STM">      0.00000000      0.00000000      0.00000000      0.00000000      0.00000000      0.00000000      0.00000000</v>
  </separator>
  <separator name="performance" >
   <i type="int" name="NPAR">     4</i>
   <i type="int" name="NSIM">     4</i>
   <i type="int" name="NBLK">    -1</i>
   <i type="logical" name="LPLANE"> T  </i>
   <i type="logical" name="LSCALAPACK"> T  </i>
   <i type="logical" name="LSCAAWARE"> F  </i>
   <i type="logical" name="LSCALU"> F  </i>
   <i type="logical" name="LASYNC"> F  </i>
   <i type="logical" name="LORBITALREAL"> F  </i>
  </separator>
  <separator name="miscellaneous" >
   <i type="int" name="IDIOT">     3</i>
   <i type="int" name="PHON_NSTRUCT">    -1</i>
   <i type="logical" name="LMUSIC"> F  </i>
   <v name="POMASS">     12.01100000     16.00000000</v>
   <v name="DARWINR">      0.00000000      0.00000000</v>
   <v name="DARWINV">      1.00000000      1.00000000</v>
   <i type="logical" name="LCORR"> T  </i>
  </separator>
  <i type="logical" name="GGA_COMPAT"> T  </i>
  <i type="logical" name="LBERRY"> F  </i>
  <i type="int" name="ICORELEVEL">     0</i>
  <i type="logical" name="LDAU"> F  </i>
  <i type="int" name="I_CONSTRAINED_M">     0</i>
  <separator name="electronic exchange-correlation" >
   <i type="string" name="GGA">PE</i>
   <i type="int" name="VOSKOWN">     0</i>
   <i type="logical" name="LHFCALC"> T  </i>
   <i type="string" name="PRECFOCK">normal</i>
   <i type="logical" name="LSYMGRAD"> F  </i>
   <i type="logical" name="LHFONE"> F  </i>
   <i type="logical" name="LRHFCALC"> F  </i>
   <i type="logical" name="LTHOMAS"> F  </i>
   <i type="logical" name="LMODELHF"> F  </i>
   <i type="logical" name="LFOCKACE"> T  </i>
   <i name="ENCUT4O">     -1.00000000</i>
   <i type="int" name="EXXOEP">     0</i>
   <i type="int" name="FOURORBIT">     0</i>
   <i name="AEXX">      0.25000000</i>
   <i name="HFALPHA">     -1.00000000</i>
   <i name="MCALPHA">      0.00000000</i>
   <i name="ALDAX">      0.75000000</i>
   <i name="AGGAX">      0.75000000</i>
   <i name="ALDAC">      1.00000000</i>
   <i name="AGGAC">      1.00000000</i>
   <i type="int" name="NKREDX">     1</i>
   <i type="int" name="NKREDY">     1</i>
   <i type="int" name="NKREDZ">     1</i>
   <i type="logical" name="SHIFTRED"> F  </i>
   <i type="logical" name="ODDONLY"> F  </i>
   <i type="logical" name="EVENONLY"> F  </i>
   <i type="int" name="LMAXFOCK">     4</i>
   <i type="int" name="NMAXFOCKAE">     1</i>
   <i type="logical" name="LFOCKAEDFT"> F  </i>
   <i name="HFSCREEN">      0.20000000</i>
   <i name="HFSCREENC">      0.20000000</i>
   <i type="int" name="NBANDSGWLOW">     1</i>
  </separator>
  <separator name="vdW DFT" >
   <i type="logical" name="LUSE_VDW"> F  </i>
   <i name="Zab_VDW">     -0.84910000</i>
   <i name="PARAM1">      0.12340000</i>
   <i name="PARAM2">      1.00000000</i>
   <i name="PARAM3">      0.00000000</i>
  </separator>
  <separator name="model GW" >
   <i type="int" name="MODEL_GW">     0</i>
   <i name="MODEL_EPS0">    200.00000000</i>
   <i name="MODEL_ALPHA">      1.00000000</i>
  </separator>
  <separator name="linear response parameters" >
   <i type="logical" name="LEPSILON"> F  </i>
   <i type="logical" name="LRPA"> F  </i>
   <i type="logical" name="LNABLA"> F  </i>
   <i type="logical" name="LVEL"> F  </i>
   <i name="CSHIFT">      0.10000000</i>
   <i name="OMEGAMAX">     -1.00000000</i>
   <i name="DEG_THRESHOLD">      0.00200000</i>
   <i name="RTIME">     -0.10000000</i>
   <i name="WPLASMAI">      0.00000000</i>
   <v name="DFIELD">      0.00000000      0.00000000      0.00000000</v>
   <v name="WPLASMA">      0.00000000      0.00000000      0.00000000      0.00000000      0.00000000      0.00000000      0.00000000      0.00000000      0.00000000</v>
  </separator>
  <separator name="orbital magnetization" >
   <i type="logical" name="NUCIND"> F  </i>
   <v name="MAGPOS">      0.00000000      0.00000000      0.00000000</v>
   <i type="logical" name="LNICSALL"> T  </i>
   <i type="logical" name="ORBITALMAG"> F  </i>
   <i type="logical" name="LMAGBLOCH"> F  </i>
   <i type="logical" name="LCHIMAG"> F  </i>
   <i type="logical" name="LGAUGE"> T  </i>
   <i type="int" name="MAGATOM">     0</i>
   <v name="MAGDIPOL">      0.00000000      0.00000000      0.00000000</v>
   <v name="AVECCONST">      0.00000000      0.00000000      0.00000000</v>
  </separator>
  <separator name="response functions" >
   <i type="logical" name="LFINITE_TEMPERATURE"> F  </i>
   <i type="logical" name="LADDER"> F  </i>
   <i type="logical" name="LRPAFORCE"> F  </i>
   <i type="logical" name="LFXC"> F  </i>
   <i type="logical" name="LHARTREE"> T  </i>
   <i type="int" name="IBSE">     0</i>
   <v type="int" name="KPOINT">    -1     0     0     0</v>
   <i type="logical" name="LTCTC"> F  </i>
   <i type="logical" name="LTCTE"> F  </i>
   <i type="logical" name="LTETE"> F  </i>
   <i type="logical" name="LTRIPLET"> F  </i>
   <i type="logical" name="LFXCEPS"> F  </i>
   <i type="logical" name="LFXHEG"> F  </i>
   <i type="int" name="NATURALO">     2</i>
   <i type="logical" name="LHOLEGF"> F  </i>
   <i type="logical" name="L2ORDER"> F  </i>
   <i type="logical" name="LDMP1"> F  </i>
   <i type="logical" name="LMP2LT"> F  </i>
   <i type="logical" name="LSMP2LT"> F  </i>
   <i type="logical" name="LGWLF"> F  </i>
   <i name="ENCUTGW">     -2.00000000</i>
   <i name="ENCUTGWSOFT">     -2.00000000</i>
   <i name="ENCUTLF">     -1.00000000</i>
   <i type="logical" name="LESF_SPLINES"> F  </i>
   <i type="int" name="LMAXMP2">    -1</i>
   <i name="SCISSOR">      0.00000000</i>
   <i type="int" name="NOMEGA">     0</i>
   <i type="int" name="NOMEGAR">     0</i>
   <i type="int" name="NBANDSGW">    -1</i>
   <i type="int" name="NBANDSO">    -1</i>
   <i type="int" name="NBANDSV">    -1</i>
   <i type="int" name="NELMGW">     1</i>
   <i type="int" name="NELMHF">     1</i>
   <i type="int" name="DIM">     3</i>
   <i type="int" name="IESPILON">     4</i>
   <i type="int" name="ANTIRES">     0</i>
   <i name="OMEGAMAX">    -30.00000000</i>
   <i name="OMEGAMIN">    -30.00000000</i>
   <i name="OMEGATL">   -200.00000000</i>
   <i type="int" name="OMEGAGRID">     0</i>
   <i name="CSHIFT">     -0.10000000</i>
   <i type="logical" name="LSELFENERGY"> F  </i>
   <i type="logical" name="LSPECTRAL"> F  </i>
   <i type="logical" name="LSPECTRALGW"> F  </i>
   <i type="logical" name="LSINGLES"> F  </i>
   <i type="logical" name="LFERMIGW"> F  </i>
   <i type="logical" name="ODDONLYGW"> F  </i>
   <i type="logical" name="EVENONLYGW"> F  </i>
   <i type="int" name="NKREDLFX">     1</i>
   <i type="int" name="NKREDLFY">     1</i>
   <i type="int" name="NKREDLFZ">     1</i>
   <i type="int" name="MAXMEM">  2800</i>
   <i type="int" name="TELESCOPE">     0</i>
   <i type="int" name="NTAUPAR">    -1</i>
   <i type="int" name="NOMEGAPAR">    -1</i>
   <i name="DAMP_NEWTON">      0.80000001</i>
   <i name="LAMBDA">      1.00000000</i>
  </separator>
  <separator name="External order field" >
   <i name="OFIELD_KAPPA">      0.00000000</i>
   <v name="OFIELD_K">      0.00000000      0.00000000      0.00000000</v>
   <i name="OFIELD_Q6_NEAR">      0.00000000</i>
   <i name="OFIELD_Q6_FAR">      0.00000000</i>
   <i name="OFIELD_A">      0.00000000</i>
  </separator>
  <separator name="optional k-points parameters" >
   <i type="int" name="KPOINTS_OPT_MODE">     1</i>
   <i type="logical" name="LKPOINTS_OPT"> F  </i>
  </separator>
 </parameters>
 <atominfo>
  <atoms>       3 </atoms>
  <types>       2 </types>
  <array name="atoms" >
   <dimension dim="1">ion</dimension>
   <field type="string">element</field>
   <field type="int">atomtype</field>
   <set>
    <rc><c>C </c><c>   1</c></rc>
    <rc><c>O </c><c>   2</c></rc>
    <rc><c>O </c><c>   2</c></rc>
   </set>
  </array>
  <array name="atomtypes" >
   <dimension dim="1">type</dimension>
   <field type="int">atomspertype</field>
   <field type="string">element</field>
   <field>mass</field>
   <field>valence</field>
   <field type="string">pseudopotential</field>
   <set>
    <rc><c>   1</c><c>C </c><c>     12.01100000</c><c>      4.00000000</c><c>  PAW_PBE C 08Apr2002                   </c></rc>
    <rc><c>   2</c><c>O </c><c>     16.00000000</c><c>      6.00000000</c><c>  PAW_PBE O 08Apr2002                   </c></rc>
   </set>
  </array>
 </atominfo>
 <structure name="initialpos" >
  <crystal>
   <varray name="basis" >
    <v>      10.00000000       0.00000000       0.00000000 </v>
    <v>       0.00000000      10.00000000       0.00000000 </v>
    <v>       0.00000000       0.00000000      10.00000000 </v>
   </varray>
   <i name="volume">   1000.00000000 </i>
   <varray name="rec_basis" >
    <v>       0.10000000       0.00000000       0.00000000 </v>
    <v>       0.00000000       0.10000000       0.00000000 </v>
    <v>       0.00000000       0.00000000       0.10000000 </v>
   </varray>
  </crystal>
  <varray name="positions" >
   <v>       0.50000000       0.50000000       0.50000000 </v>
   <v>       0.50000001       0.50000000       0.61634621 </v>
   <v>       0.49999999       0.50000000       0.38365379 </v>
  </varray>
 </structure>
 <calculation>
  <scstep>
   <time name="total">    0.19    0.26</time>
   <energy>
    <i name="alphaZ">      1.06967730 </i>
    <i name="ewald">    302.25367573 </i>
    <i name="hartreedc">  -1110.94079067 </i>
    <i name="XCdc">     67.63453148 </i>
    <i name="pawpsdc">    801.62100016 </i>
    <i name="pawaedc">   -889.97731249 </i>
    <i name="eentropy">      0.01160917 </i>
    <i name="bandstr">   -159.14181526 </i>
    <i name="atom">   1004.25233184 </i>
    <i name="e_fr_energy">     16.78290726 </i>
    <i name="e_wo_entrp">     16.77129809 </i>
    <i name="e_0_energy">     16.77903753 </i>
   </energy>
  </scstep>
  <scstep>
   <time name="total">    0.02    0.02</time>
   <energy>
    <i name="e_fr_energy">   -102.49019432 </i>
    <i name="e_wo_entrp">   -102.50179013 </i>
    <i name="e_0_energy">   -102.49405959 </i>
   </energy>
  </scstep>
  <scstep>
   <time name="total">    0.01    0.02</time>
   <energy>
    <i name="e_fr_energy">   -121.27310294 </i>
    <i name="e_wo_entrp">   -121.29676978 </i>
    <i name="e_0_energy">   -121.28099189 </i>
   </energy>
  </scstep>
  <scstep>
   <time name="total">    0.01    0.01</time>
   <energy>
    <i name="e_fr_energy">   -122.11151736 </i>
    <i name="e_wo_entrp">   -122.13471014 </i>
    <i name="e_0_energy">   -122.11924829 </i>
   </energy>
  </scstep>
  <scstep>
   <time name="total">    0.28    0.28</time>
   <energy>
    <i name="e_fr_energy">    -30.73044170 </i>
    <i name="e_wo_entrp">    -30.75384413 </i>
    <i name="e_0_energy">    -30.73824251 </i>
   </energy>
  </scstep>
  <scstep>
   <time name="total">    0.45    0.46</time>
   <energy>
    <i name="e_fr_energy">    -24.66405805 </i>
    <i name="e_wo_entrp">    -24.68747544 </i>
    <i name="e_0_energy">    -24.67186384 </i>
   </energy>
  </scstep>
  <scstep>
   <time name="total">    0.43    0.43</time>
   <energy>
    <i name="e_fr_energy">    -27.57765865 </i>
    <i name="e_wo_entrp">    -27.60112191 </i>
    <i name="e_0_energy">    -27.58547973 </i>
   </energy>
  </scstep>
  <scstep>
   <time name="total">    0.42    0.42</time>
   <energy>
    <i name="e_fr_energy">    -28.07012367 </i>
    <i name="e_wo_entrp">    -28.09365547 </i>
    <i name="e_0_energy">    -28.07796760 </i>
   </energy>
  </scstep>
  <scstep>
   <time name="total">    0.42    0.42</time>
   <energy>
    <i name="e_fr_energy">    -28.25996577 </i>
    <i name="e_wo_entrp">    -28.28358831 </i>
    <i name="e_0_energy">    -28.26783995 </i>
   </energy>
  </scstep>
  <scstep>
   <time name="total">    0.42    0.42</time>
   <energy>
    <i name="e_fr_energy">    -28.33401670 </i>
    <i name="e_wo_entrp">    -28.35774812 </i>
    <i name="e_0_energy">    -28.34192717 </i>
   </energy>
  </scstep>
  <scstep>
   <time name="total">    0.41    0.42</time>
   <energy>
    <i name="e_fr_energy">    -28.36393004 </i>
    <i name="e_wo_entrp">    -28.38777410 </i>
    <i name="e_0_energy">    -28.37187806 </i>
   </energy>
  </scstep>
  <scstep>
   <time name="total">    0.42    0.42</time>
   <energy>
    <i name="e_fr_energy">    -28.37452112 </i>
    <i name="e_wo_entrp">    -28.39849734 </i>
    <i name="e_0_energy">    -28.38251320 </i>
   </energy>
  </scstep>
  <scstep>
   <time name="total">    0.41    0.42</time>
   <energy>
    <i name="e_fr_energy">    -28.37789654 </i>
    <i name="e_wo_entrp">    -28.40202780 </i>
    <i name="e_0_energy">    -28.38594029 </i>
   </energy>
  </scstep>
  <scstep>
   <time name="total">    0.41    0.42</time>
   <energy>
    <i name="e_fr_energy">    -28.37894277 </i>
    <i name="e_wo_entrp">    -28.40325481 </i>
    <i name="e_0_energy">    -28.38704678 </i>
   </energy>
  </scstep>
  <scstep>
   <time name="total">    0.41    0.42</time>
   <energy>
    <i name="e_fr_energy">    -28.37927593 </i>
    <i name="e_wo_entrp">    -28.40382334 </i>
    <i name="e_0_energy">    -28.38745840 </i>
   </energy>
  </scstep>
  <scstep>
   <time name="total">    0.42    0.42</time>
   <energy>
    <i name="e_fr_energy">    -28.37941889 </i>
    <i name="e_wo_entrp">    -28.40431570 </i>
    <i name="e_0_energy">    -28.38771783 </i>
   </energy>
  </scstep>
  <scstep>
   <time name="total">    0.41    0.42</time>
   <energy>
    <i name="e_fr_energy">    -28.37951486 </i>
    <i name="e_wo_entrp">    -28.40478137 </i>
    <i name="e_0_energy">    -28.38793703 </i>
   </energy>
  </scstep>
  <scstep>
   <time name="total">    0.41    0.42</time>
   <energy>
    <i name="e_fr_energy">    -28.37958071 </i>
    <i name="e_wo_entrp">    -28.40511671 </i>
    <i name="e_0_energy">    -28.38809271 </i>
   </energy>
  </scstep>
  <scstep>
   <time name="total">    0.41    0.42</time>
   <energy>
    <i name="e_fr_energy">    -28.37962281 </i>
    <i name="e_wo_entrp">    -28.40528353 </i>
    <i name="e_0_energy">    -28.38817638 </i>
   </energy>
  </scstep>
  <scstep>
   <time name="total">    0.41    0.42</time>
   <energy>
    <i name="e_fr_energy">    -28.37964318 </i>
    <i name="e_wo_entrp">    -28.40535634 </i>
    <i name="e_0_energy">    -28.38821423 </i>
   </energy>
  </scstep>
  <scstep>
   <time name="total">    0.42    0.42</time>
   <energy>
    <i name="e_fr_energy">    -28.37965269 </i>
    <i name="e_wo_entrp">    -28.40538265 </i>
    <i name="e_0_energy">    -28.38822934 </i>
   </energy>
  </scstep>
  <scstep>
   <time name="total">    0.41    0.42</time>
   <energy>
    <i name="e_fr_energy">    -28.37965655 </i>
    <i name="e_wo_entrp">    -28.40538846 </i>
    <i name="e_0_energy">    -28.38823385 </i>
   </energy>
  </scstep>
  <scstep>
   <time name="total">    0.41    0.42</time>
   <energy>
    <i name="e_fr_energy">    -28.37965802 </i>
    <i name="e_wo_entrp">    -28.40538668 </i>
    <i name="e_0_energy">    -28.38823424 </i>
   </energy>
  </scstep>
  <scstep>
   <time name="total">    0.41    0.42</time>
   <energy>
    <i name="e_fr_energy">    -28.37965857 </i>
    <i name="e_wo_entrp">    -28.40538178 </i>
    <i name="e_0_energy">    -28.38823297 </i>
   </energy>
  </scstep>
  <scstep>
   <time name="total">    0.41    0.42</time>
   <energy>
    <i name="e_fr_energy">    -28.37965881 </i>
    <i name="e_wo_entrp">    -28.40537577 </i>
    <i name="e_0_energy">    -28.38823113 </i>
   </energy>
  </scstep>
  <scstep>
   <time name="total">    0.41    0.42</time>
   <energy>
    <i name="e_fr_energy">    -28.37965893 </i>
    <i name="e_wo_entrp">    -28.40537085 </i>
    <i name="e_0_energy">    -28.38822957 </i>
   </energy>
  </scstep>
  <scstep>
   <time name="total">    0.41    0.42</time>
   <energy>
    <i name="e_fr_energy">    -28.37965898 </i>
    <i name="e_wo_entrp">    -28.40536670 </i>
    <i name="e_0_energy">    -28.38822822 </i>
   </energy>
  </scstep>
  <scstep>
   <time name="total">    0.42    0.42</time>
   <energy>
    <i name="e_fr_energy">    -28.37965901 </i>
    <i name="e_wo_entrp">    -28.40536345 </i>
    <i name="e_0_energy">    -28.38822715 </i>
   </energy>
  </scstep>
  <scstep>
   <time name="total">    0.41    0.42</time>
   <energy>
    <i name="e_fr_energy">    -28.37965902 </i>
    <i name="e_wo_entrp">    -28.40536190 </i>
    <i name="e_0_energy">    -28.38822665 </i>
   </energy>
  </scstep>
  <scstep>
   <time name="total">    0.45    0.45</time>
   <energy>
    <i name="alphaZ">      1.06967730 </i>
    <i name="ewald">    302.25367573 </i>
    <i name="hartreedc">  -1152.08557874 </i>
    <i name="XCdc">     53.59548119 </i>
    <i name="pawpsdc">   1671.91092518 </i>
    <i name="pawaedc">  -1674.45061104 </i>
    <i name="eentropy">      0.02570139 </i>
    <i name="bandstr">   -281.70978151 </i>
    <i name="atom">   1004.25233184 </i>
    <i name="e_fr_energy">    -28.37965903 </i>
    <i name="e_wo_entrp">    -28.40536042 </i>
    <i name="e_0_energy">    -28.38822616 </i>
   </energy>
  </scstep>
  <structure>
   <crystal>
    <varray name="basis" >
     <v>      10.00000000       0.00000000       0.00000000 </v>
     <v>       0.00000000      10.00000000       0.00000000 </v>
     <v>       0.00000000       0.00000000      10.00000000 </v>
    </varray>
    <i name="volume">   1000.00000000 </i>
    <varray name="rec_basis" >
     <v>       0.10000000       0.00000000       0.00000000 </v>
     <v>       0.00000000       0.10000000       0.00000000 </v>
     <v>       0.00000000       0.00000000       0.10000000 </v>
    </varray>
   </crystal>
   <varray name="positions" >
    <v>       0.50000000       0.50000000       0.50000000 </v>
    <v>       0.50000001       0.50000000       0.61634621 </v>
    <v>       0.49999999       0.50000000       0.38365379 </v>
   </varray>
  </structure>
  <varray name="forces" >
   <v>      -0.00000213       0.00000067      -0.00000214 </v>
   <v>       0.00000199      -0.00000036       0.00025446 </v>
   <v>       0.00000015      -0.00000031      -0.00025233 </v>
  </varray>
  <varray name="stress" >
   <v>      -0.56461274      -0.00516215      -0.00002406 </v>
   <v>      -0.00516215      -0.55189461      -0.00002950 </v>
   <v>      -0.00002406      -0.00002950      -0.45880704 </v>
  </varray>
  <energy>
   <i name="e_fr_energy">    -28.37965903 </i>
   <i name="e_wo_entrp">    -28.40536042 </i>
   <i name="e_0_energy">    -28.38822616 </i>
  </energy>
  <time name="totalsc">   14.70   14.87</time>
 </calculation>
 <calculation>
  <scstep>
   <time name="total">    0.42    0.42</time>
   <energy>
    <i name="alphaZ">      1.06967730 </i>
    <i name="ewald">    302.16646399 </i>
    <i name="hartreedc">  -1152.15544249 </i>
    <i name="XCdc">     53.60286267 </i>
    <i name="pawpsdc">   1724.11314746 </i>
    <i name="pawaedc">  -1726.65321109 </i>
    <i name="eentropy">      0.02568265 </i>
    <i name="bandstr">   -281.47423610 </i>
    <i name="atom">   1004.25233184 </i>
    <i name="e_fr_energy">    -28.28222161 </i>
    <i name="e_wo_entrp">    -28.30790426 </i>
    <i name="e_0_energy">    -28.29078249 </i>
   </energy>
  </scstep>
  <scstep>
   <time name="total">    0.42    0.42</time>
   <energy>
    <i name="e_fr_energy">    -28.35310785 </i>
    <i name="e_wo_entrp">    -28.37879186 </i>
    <i name="e_0_energy">    -28.36166919 </i>
   </energy>
  </scstep>
  <scstep>
   <time name="total">    0.42    0.42</time>
   <energy>
    <i name="e_fr_energy">    -28.37022037 </i>
    <i name="e_wo_entrp">    -28.39590707 </i>
    <i name="e_0_energy">    -28.37878261 </i>
   </energy>
  </scstep>
  <scstep>
   <time name="total">    0.41    0.42</time>
   <energy>
    <i name="e_fr_energy">    -28.37516466 </i>
    <i name="e_wo_entrp">    -28.40085408 </i>
    <i name="e_0_energy">    -28.38372780 </i>
   </energy>
  </scstep>
  <scstep>
   <time name="total">    0.41    0.42</time>
   <energy>
    <i name="e_fr_energy">    -28.37629500 </i>
    <i name="e_wo_entrp">    -28.40198668 </i>
    <i name="e_0_energy">    -28.38485890 </i>
   </energy>
  </scstep>
  <scstep>
   <time name="total">    0.41    0.42</time>
   <energy>
    <i name="e_fr_energy">    -28.37658299 </i>
    <i name="e_wo_entrp">    -28.40227627 </i>
    <i name="e_0_energy">    -28.38514742 </i>
   </energy>
  </scstep>
  <scstep>
   <time name="total">    0.41    0.42</time>
   <energy>
    <i name="e_fr_energy">    -28.37667276 </i>
    <i name="e_wo_entrp">    -28.40236699 </i>
    <i name="e_0_energy">    -28.38523750 </i>
   </energy>
  </scstep>
  <scstep>
   <time name="total">    0.41    0.42</time>
   <energy>
    <i name="e_fr_energy">    -28.37670396 </i>
    <i name="e_wo_entrp">    -28.40239842 </i>
    <i name="e_0_energy">    -28.38526878 </i>
   </energy>
  </scstep>
  <scstep>
   <time name="total">    0.42    0.42</time>
   <energy>
    <i name="e_fr_energy">    -28.37671374 </i>
    <i name="e_wo_entrp">    -28.40240799 </i>
    <i name="e_0_energy">    -28.38527849 </i>
   </energy>
  </scstep>
  <scstep>
   <time name="total">    0.41    0.42</time>
   <energy>
    <i name="e_fr_energy">    -28.37671682 </i>
    <i name="e_wo_entrp">    -28.40241055 </i>
    <i name="e_0_energy">    -28.38528139 </i>
   </energy>
  </scstep>
  <scstep>
   <time name="total">    0.41    0.42</time>
   <energy>
    <i name="e_fr_energy">    -28.37671792 </i>
    <i name="e_wo_entrp">    -28.40241095 </i>
    <i name="e_0_energy">    -28.38528226 </i>
   </energy>
  </scstep>
  <scstep>
   <time name="total">    0.41    0.42</time>
   <energy>
    <i name="e_fr_energy">    -28.37671830 </i>
    <i name="e_wo_entrp">    -28.40241059 </i>
    <i name="e_0_energy">    -28.38528240 </i>
   </energy>
  </scstep>
  <scstep>
   <time name="total">    0.41    0.42</time>
   <energy>
    <i name="e_fr_energy">    -28.37671846 </i>
    <i name="e_wo_entrp">    -28.40240968 </i>
    <i name="e_0_energy">    -28.38528220 </i>
   </energy>
  </scstep>
  <scstep>
   <time name="total">    0.41    0.42</time>
   <energy>
    <i name="e_fr_energy">    -28.37671856 </i>
    <i name="e_wo_entrp">    -28.40240791 </i>
    <i name="e_0_energy">    -28.38528168 </i>
   </energy>
  </scstep>
  <scstep>
   <time name="total">    0.41    0.42</time>
   <energy>
    <i name="e_fr_energy">    -28.37671869 </i>
    <i name="e_wo_entrp">    -28.40240380 </i>
    <i name="e_0_energy">    -28.38528040 </i>
   </energy>
  </scstep>
  <scstep>
   <time name="total">    0.42    0.42</time>
   <energy>
    <i name="e_fr_energy">    -28.37671901 </i>
    <i name="e_wo_entrp">    -28.40239737 </i>
    <i name="e_0_energy">    -28.38527846 </i>
   </energy>
  </scstep>
  <scstep>
   <time name="total">    0.41    0.42</time>
   <energy>
    <i name="e_fr_energy">    -28.37671991 </i>
    <i name="e_wo_entrp">    -28.40242170 </i>
    <i name="e_0_energy">    -28.38528717 </i>
   </energy>
  </scstep>
  <scstep>
   <time name="total">    0.41    0.42</time>
   <energy>
    <i name="e_fr_energy">    -28.37672259 </i>
    <i name="e_wo_entrp">    -28.40247198 </i>
    <i name="e_0_energy">    -28.38530572 </i>
   </energy>
  </scstep>
  <scstep>
   <time name="total">    0.41    0.42</time>
   <energy>
    <i name="e_fr_energy">    -28.37672451 </i>
    <i name="e_wo_entrp">    -28.40253006 </i>
    <i name="e_0_energy">    -28.38532636 </i>
   </energy>
  </scstep>
  <scstep>
   <time name="total">    0.42    0.43</time>
   <energy>
    <i name="e_fr_energy">    -28.37672511 </i>
    <i name="e_wo_entrp">    -28.40190620 </i>
    <i name="e_0_energy">    -28.38511880 </i>
   </energy>
  </scstep>
  <scstep>
   <time name="total">    1.03    1.03</time>
   <energy>
    <i name="e_fr_energy">    -28.37684066 </i>
    <i name="e_wo_entrp">    -28.40133264 </i>
    <i name="e_0_energy">    -28.38500465 </i>
   </energy>
  </scstep>
  <scstep>
   <time name="total">    0.42    0.42</time>
   <energy>
    <i name="e_fr_energy">    -28.37467802 </i>
    <i name="e_wo_entrp">    -28.39922410 </i>
    <i name="e_0_energy">    -28.38286004 </i>
   </energy>
  </scstep>
  <scstep>
   <time name="total">    0.41    0.42</time>
   <energy>
    <i name="e_fr_energy">    -28.37613101 </i>
    <i name="e_wo_entrp">    -28.40081277 </i>
    <i name="e_0_energy">    -28.38435826 </i>
   </energy>
  </scstep>
  <scstep>
   <time name="total">    0.41    0.42</time>
   <energy>
    <i name="e_fr_energy">    -28.37649062 </i>
    <i name="e_wo_entrp">    -28.40135761 </i>
    <i name="e_0_energy">    -28.38477961 </i>
   </energy>
  </scstep>
  <scstep>
   <time name="total">    0.42    0.42</time>
   <energy>
    <i name="e_fr_energy">    -28.37662891 </i>
    <i name="e_wo_entrp">    -28.40168139 </i>
    <i name="e_0_energy">    -28.38497974 </i>
   </energy>
  </scstep>
  <scstep>
   <time name="total">    0.41    0.42</time>
   <energy>
    <i name="e_fr_energy">    -28.37667525 </i>
    <i name="e_wo_entrp">    -28.40206597 </i>
    <i name="e_0_energy">    -28.38513883 </i>
   </energy>
  </scstep>
  <scstep>
   <time name="total">    0.41    0.42</time>
   <energy>
    <i name="e_fr_energy">    -28.37672462 </i>
    <i name="e_wo_entrp">    -28.40230780 </i>
    <i name="e_0_energy">    -28.38525234 </i>
   </energy>
  </scstep>
  <scstep>
   <time name="total">    0.41    0.42</time>
   <energy>
    <i name="e_fr_energy">    -28.37675092 </i>
    <i name="e_wo_entrp">    -28.40240797 </i>
    <i name="e_0_energy">    -28.38530327 </i>
   </energy>
  </scstep>
  <scstep>
   <time name="total">    0.41    0.42</time>
   <energy>
    <i name="e_fr_energy">    -28.37676006 </i>
    <i name="e_wo_entrp">    -28.40244288 </i>
    <i name="e_0_energy">    -28.38532100 </i>
   </energy>
  </scstep>
  <scstep>
   <time name="total">    0.41    0.42</time>
   <energy>
    <i name="e_fr_energy">    -28.37676265 </i>
    <i name="e_wo_entrp">    -28.40245902 </i>
    <i name="e_0_energy">    -28.38532811 </i>
   </energy>
  </scstep>
  <scstep>
   <time name="total">    0.41    0.42</time>
   <energy>
    <i name="e_fr_energy">    -28.37676365 </i>
    <i name="e_wo_entrp">    -28.40246900 </i>
    <i name="e_0_energy">    -28.38533210 </i>
   </energy>
  </scstep>
  <scstep>
   <time name="total">    0.42    0.42</time>
   <energy>
    <i name="e_fr_energy">    -28.37676418 </i>
    <i name="e_wo_entrp">    -28.40247414 </i>
    <i name="e_0_energy">    -28.38533417 </i>
   </energy>
  </scstep>
  <scstep>
   <time name="total">    0.41    0.42</time>
   <energy>
    <i name="e_fr_energy">    -28.37676446 </i>
    <i name="e_wo_entrp">    -28.40247642 </i>
    <i name="e_0_energy">    -28.38533512 </i>
   </energy>
  </scstep>
  <scstep>
   <time name="total">    0.41    0.42</time>
   <energy>
    <i name="e_fr_energy">    -28.37676467 </i>
    <i name="e_wo_entrp">    -28.40247729 </i>
    <i name="e_0_energy">    -28.38533554 </i>
   </energy>
  </scstep>
  <scstep>
   <time name="total">    0.41    0.42</time>
   <energy>
    <i name="e_fr_energy">    -28.37676502 </i>
    <i name="e_wo_entrp">    -28.40247825 </i>
    <i name="e_0_energy">    -28.38533610 </i>
   </energy>
  </scstep>
  <scstep>
   <time name="total">    0.42    0.42</time>
   <energy>
    <i name="e_fr_energy">    -28.37676611 </i>
    <i name="e_wo_entrp">    -28.40250160 </i>
    <i name="e_0_energy">    -28.38534460 </i>
   </energy>
  </scstep>
  <scstep>
   <time name="total">    0.41    0.42</time>
   <energy>
    <i name="e_fr_energy">    -28.37676965 </i>
    <i name="e_wo_entrp">    -28.40255173 </i>
    <i name="e_0_energy">    -28.38536368 </i>
   </energy>
  </scstep>
  <scstep>
   <time name="total">    0.41    0.42</time>
   <energy>
    <i name="e_fr_energy">    -28.37677349 </i>
    <i name="e_wo_entrp">    -28.40257952 </i>
    <i name="e_0_energy">    -28.38537550 </i>
   </energy>
  </scstep>
  <scstep>
   <time name="total">    0.41    0.42</time>
   <energy>
    <i name="e_fr_energy">    -28.37677647 </i>
    <i name="e_wo_entrp">    -28.39905486 </i>
    <i name="e_0_energy">    -28.38420260 </i>
   </energy>
  </scstep>
  <scstep>
   <time name="total">    0.41    0.42</time>
   <energy>
    <i name="e_fr_energy">    -28.37802639 </i>
    <i name="e_wo_entrp">    -28.40308868 </i>
    <i name="e_0_energy">    -28.38638048 </i>
   </energy>
  </scstep>
  <scstep>
   <time name="total">    0.42    0.42</time>
   <energy>
    <i name="e_fr_energy">    -28.37514806 </i>
    <i name="e_wo_entrp">    -28.40025803 </i>
    <i name="e_0_energy">    -28.38351805 </i>
   </energy>
  </scstep>
  <scstep>
   <time name="total">    0.41    0.42</time>
   <energy>
    <i name="e_fr_energy">    -28.37658178 </i>
    <i name="e_wo_entrp">    -28.40177040 </i>
    <i name="e_0_energy">    -28.38497799 </i>
   </energy>
  </scstep>
  <scstep>
   <time name="total">    0.41    0.42</time>
   <energy>
    <i name="e_fr_energy">    -28.37671943 </i>
    <i name="e_wo_entrp">    -28.40202435 </i>
    <i name="e_0_energy">    -28.38515440 </i>
   </energy>
  </scstep>
  <scstep>
   <time name="total">    0.41    0.42</time>
   <energy>
    <i name="e_fr_energy">    -28.37676172 </i>
    <i name="e_wo_entrp">    -28.40221906 </i>
    <i name="e_0_energy">    -28.38524750 </i>
   </energy>
  </scstep>
  <scstep>
   <time name="total">    0.41    0.42</time>
   <energy>
    <i name="e_fr_energy">    -28.37678378 </i>
    <i name="e_wo_entrp">    -28.40239109 </i>
    <i name="e_0_energy">    -28.38531955 </i>
   </energy>
  </scstep>
  <scstep>
   <time name="total">    0.41    0.42</time>
   <energy>
    <i name="e_fr_energy">    -28.37679640 </i>
    <i name="e_wo_entrp">    -28.40248193 </i>
    <i name="e_0_energy">    -28.38535824 </i>
   </energy>
  </scstep>
  <scstep>
   <time name="total">    0.41    0.42</time>
   <energy>
    <i name="e_fr_energy">    -28.37680173 </i>
    <i name="e_wo_entrp">    -28.40251206 </i>
    <i name="e_0_energy">    -28.38537184 </i>
   </energy>
  </scstep>
  <scstep>
   <time name="total">    0.41    0.42</time>
   <energy>
    <i name="e_fr_energy">    -28.37680316 </i>
    <i name="e_wo_entrp">    -28.40251910 </i>
    <i name="e_0_energy">    -28.38537514 </i>
   </energy>
  </scstep>
  <scstep>
   <time name="total">    0.41    0.42</time>
   <energy>
    <i name="e_fr_energy">    -28.37680344 </i>
    <i name="e_wo_entrp">    -28.40252103 </i>
    <i name="e_0_energy">    -28.38537597 </i>
   </energy>
  </scstep>
  <scstep>
   <time name="total">    0.42    0.42</time>
   <energy>
    <i name="e_fr_energy">    -28.37680352 </i>
    <i name="e_wo_entrp">    -28.40252127 </i>
    <i name="e_0_energy">    -28.38537611 </i>
   </energy>
  </scstep>
  <scstep>
   <time name="total">    0.42    0.42</time>
   <energy>
    <i name="e_fr_energy">    -28.37680355 </i>
    <i name="e_wo_entrp">    -28.40252091 </i>
    <i name="e_0_energy">    -28.38537600 </i>
   </energy>
  </scstep>
  <scstep>
   <time name="total">    0.41    0.42</time>
   <energy>
    <i name="e_fr_energy">    -28.37680357 </i>
    <i name="e_wo_entrp">    -28.40252031 </i>
    <i name="e_0_energy">    -28.38537581 </i>
   </energy>
  </scstep>
  <scstep>
   <time name="total">    0.41    0.42</time>
   <energy>
    <i name="e_fr_energy">    -28.37680358 </i>
    <i name="e_wo_entrp">    -28.40251979 </i>
    <i name="e_0_energy">    -28.38537565 </i>
   </energy>
  </scstep>
  <scstep>
   <time name="total">    0.45    0.45</time>
   <energy>
    <i name="alphaZ">      1.06967730 </i>
    <i name="ewald">    302.16646399 </i>
    <i name="hartreedc">  -1152.01322755 </i>
    <i name="XCdc">     53.59344236 </i>
    <i name="pawpsdc">   1671.21588749 </i>
    <i name="pawaedc">  -1673.75518640 </i>
    <i name="eentropy">      0.02571594 </i>
    <i name="bandstr">   -281.68788321 </i>
    <i name="atom">   1004.25233184 </i>
    <i name="e_fr_energy">    -28.37680358 </i>
    <i name="e_wo_entrp">    -28.40251953 </i>
    <i name="e_0_energy">    -28.38537557 </i>
   </energy>
  </scstep>
  <structure>
   <crystal>
    <varray name="basis" >
     <v>      10.00000000       0.00000000       0.00000000 </v>
     <v>       0.00000000      10.00000000       0.00000000 </v>
     <v>       0.00000000       0.00000000      10.00000000 </v>
    </varray>
    <i name="volume">   1000.00000000 </i>
    <varray name="rec_basis" >
     <v>       0.10000000       0.00000000       0.00000000 </v>
     <v>       0.00000000       0.10000000       0.00000000 </v>
     <v>       0.00000000       0.00000000       0.10000000 </v>
    </varray>
   </crystal>
   <varray name="positions" >
    <v>       0.50200000       0.50000000       0.50000000 </v>
    <v>       0.50000001       0.50000000       0.61634621 </v>
    <v>       0.49999999       0.50000000       0.38365379 </v>
   </varray>
  </structure>
  <varray name="forces" >
   <v>      -0.28571416      -0.00077913      -0.00000219 </v>
   <v>       0.14285836       0.00039051      -0.01279403 </v>
   <v>       0.14285580       0.00038861       0.01279622 </v>
  </varray>
  <varray name="stress" >
   <v>      -0.56009949      -0.00048646      -0.00002299 </v>
   <v>      -0.00048646      -0.56548976      -0.00002601 </v>
   <v>      -0.00002299      -0.00002601      -0.50729459 </v>
  </varray>
  <energy>
   <i name="e_fr_energy">    -28.37680358 </i>
   <i name="e_wo_entrp">    -28.40251953 </i>
   <i name="e_0_energy">    -28.38537557 </i>
  </energy>
  <time name="totalsc">   24.25   24.42</time>
 </calculation>
 <calculation>
  <scstep>
   <time name="total">    0.42    0.42</time>
   <energy>
    <i name="alphaZ">      1.06967730 </i>
    <i name="ewald">    302.16646426 </i>
    <i name="hartreedc">  -1152.39810757 </i>
    <i name="XCdc">     53.62885114 </i>
    <i name="pawpsdc">   1881.42246296 </i>
    <i name="pawaedc">  -1883.96558494 </i>
    <i name="eentropy">      0.02574671 </i>
    <i name="bandstr">   -281.01391865 </i>
    <i name="atom">   1004.25233184 </i>
    <i name="e_fr_energy">    -28.00083003 </i>
    <i name="e_wo_entrp">    -28.02657674 </i>
    <i name="e_0_energy">    -28.00941227 </i>
   </energy>
  </scstep>
  <scstep>
   <time name="total">    0.42    0.42</time>
   <energy>
    <i name="e_fr_energy">    -28.28071559 </i>
    <i name="e_wo_entrp">    -28.30645659 </i>
    <i name="e_0_energy">    -28.28929593 </i>
   </energy>
  </scstep>
  <scstep>
   <time name="total">    0.42    0.42</time>
   <energy>
    <i name="e_fr_energy">    -28.35001748 </i>
    <i name="e_wo_entrp">    -28.37574862 </i>
    <i name="e_0_energy">    -28.35859453 </i>
   </energy>
  </scstep>
  <scstep>
   <time name="total">    0.42    0.42</time>
   <energy>
    <i name="e_fr_energy">    -28.37017075 </i>
    <i name="e_wo_entrp">    -28.39589087 </i>
    <i name="e_0_energy">    -28.37874412 </i>
   </energy>
  </scstep>
  <scstep>
   <time name="total">    0.42    0.42</time>
   <energy>
    <i name="e_fr_energy">    -28.37486020 </i>
    <i name="e_wo_entrp">    -28.40057002 </i>
    <i name="e_0_energy">    -28.38343014 </i>
   </energy>
  </scstep>
  <scstep>
   <time name="total">    0.41    0.42</time>
   <energy>
    <i name="e_fr_energy">    -28.37613780 </i>
    <i name="e_wo_entrp">    -28.40183957 </i>
    <i name="e_0_energy">    -28.38470506 </i>
   </energy>
  </scstep>
  <scstep>
   <time name="total">    0.41    0.42</time>
   <energy>
    <i name="e_fr_energy">    -28.37656969 </i>
    <i name="e_wo_entrp">    -28.40226650 </i>
    <i name="e_0_energy">    -28.38513529 </i>
   </energy>
  </scstep>
  <scstep>
   <time name="total">    0.41    0.42</time>
   <energy>
    <i name="e_fr_energy">    -28.37673000 </i>
    <i name="e_wo_entrp">    -28.40242566 </i>
    <i name="e_0_energy">    -28.38529522 </i>
   </energy>
  </scstep>
  <scstep>
   <time name="total">    0.41    0.42</time>
   <energy>
    <i name="e_fr_energy">    -28.37677951 </i>
    <i name="e_wo_entrp">    -28.40247623 </i>
    <i name="e_0_energy">    -28.38534509 </i>
   </energy>
  </scstep>
  <scstep>
   <time name="total">    0.42    0.42</time>
   <energy>
    <i name="e_fr_energy">    -28.37679505 </i>
    <i name="e_wo_entrp">    -28.40249432 </i>
    <i name="e_0_energy">    -28.38536148 </i>
   </energy>
  </scstep>
  <scstep>
   <time name="total">    0.41    0.42</time>
   <energy>
    <i name="e_fr_energy">    -28.37680044 </i>
    <i name="e_wo_entrp">    -28.40250289 </i>
    <i name="e_0_energy">    -28.38536793 </i>
   </energy>
  </scstep>
  <scstep>
   <time name="total">    0.41    0.42</time>
   <energy>
    <i name="e_fr_energy">    -28.37680246 </i>
    <i name="e_wo_entrp">    -28.40250782 </i>
    <i name="e_0_energy">    -28.38537091 </i>
   </energy>
  </scstep>
  <scstep>
   <time name="total">    0.41    0.42</time>
   <energy>
    <i name="e_fr_energy">    -28.37680320 </i>
    <i name="e_wo_entrp">    -28.40251136 </i>
    <i name="e_0_energy">    -28.38537259 </i>
   </energy>
  </scstep>
  <scstep>
   <time name="total">    0.41    0.42</time>
   <energy>
    <i name="e_fr_energy">    -28.37680349 </i>
    <i name="e_wo_entrp">    -28.40251371 </i>
    <i name="e_0_energy">    -28.38537356 </i>
   </energy>
  </scstep>
  <scstep>
   <time name="total">    0.42    0.42</time>
   <energy>
    <i name="e_fr_energy">    -28.37680358 </i>
    <i name="e_wo_entrp">    -28.40251574 </i>
    <i name="e_0_energy">    -28.38537430 </i>
   </energy>
  </scstep>
  <scstep>
   <time name="total">    0.41    0.42</time>
   <energy>
    <i name="e_fr_energy">    -28.37680362 </i>
    <i name="e_wo_entrp">    -28.40251741 </i>
    <i name="e_0_energy">    -28.38537489 </i>
   </energy>
  </scstep>
  <scstep>
   <time name="total">    0.41    0.42</time>
   <energy>
    <i name="e_fr_energy">    -28.37680364 </i>
    <i name="e_wo_entrp">    -28.40251871 </i>
    <i name="e_0_energy">    -28.38537533 </i>
   </energy>
  </scstep>
  <scstep>
   <time name="total">    0.45    0.45</time>
   <energy>
    <i name="alphaZ">      1.06967730 </i>
    <i name="ewald">    302.16646426 </i>
    <i name="hartreedc">  -1152.01296453 </i>
    <i name="XCdc">     53.59343204 </i>
    <i name="pawpsdc">   1671.21228598 </i>
    <i name="pawaedc">  -1673.75159048 </i>
    <i name="eentropy">      0.02571640 </i>
    <i name="bandstr">   -281.68811292 </i>
    <i name="atom">   1004.25233184 </i>
    <i name="e_fr_energy">    -28.37680365 </i>
    <i name="e_wo_entrp">    -28.40252005 </i>
    <i name="e_0_energy">    -28.38537578 </i>
   </energy>
  </scstep>
  <structure>
   <crystal>
    <varray name="basis" >
     <v>      10.00000000       0.00000000       0.00000000 </v>
     <v>       0.00000000      10.00000000       0.00000000 </v>
     <v>       0.00000000       0.00000000      10.00000000 </v>
    </varray>
    <i name="volume">   1000.00000000 </i>
    <varray name="rec_basis" >
     <v>       0.10000000       0.00000000       0.00000000 </v>
     <v>       0.00000000       0.10000000       0.00000000 </v>
     <v>       0.00000000       0.00000000       0.10000000 </v>
    </varray>
   </crystal>
   <varray name="positions" >
    <v>       0.49800000       0.50000000       0.50000000 </v>
    <v>       0.50000001       0.50000000       0.61634621 </v>
    <v>       0.49999999       0.50000000       0.38365379 </v>
   </varray>
  </structure>
  <varray name="forces" >
   <v>       0.28574470       0.00073131      -0.00000163 </v>
   <v>      -0.14287108      -0.00036464      -0.01288358 </v>
   <v>      -0.14287362      -0.00036667       0.01288521 </v>
  </varray>
  <varray name="stress" >
   <v>      -0.55892247      -0.00089519      -0.00002287 </v>
   <v>      -0.00089519      -0.56601539      -0.00002609 </v>
   <v>      -0.00002287      -0.00002609      -0.50720121 </v>
  </varray>
  <energy>
   <i name="e_fr_energy">    -28.37680365 </i>
   <i name="e_wo_entrp">    -28.40252005 </i>
   <i name="e_0_energy">    -28.38537578 </i>
  </energy>
  <time name="totalsc">    8.70    8.76</time>
 </calculation>
 <calculation>
  <scstep>
   <time name="total">    0.41    0.41</time>
   <energy>
    <i name="alphaZ">      1.06967730 </i>
    <i name="ewald">    302.16646389 </i>
    <i name="hartreedc">  -1152.20673749 </i>
    <i name="XCdc">     53.61112126 </i>
    <i name="pawpsdc">   1774.68241330 </i>
    <i name="pawaedc">  -1777.22354958 </i>
    <i name="eentropy">      0.02568599 </i>
    <i name="bandstr">   -281.34939417 </i>
    <i name="atom">   1004.25233184 </i>
    <i name="e_fr_energy">    -28.18815513 </i>
    <i name="e_wo_entrp">    -28.21384111 </i>
    <i name="e_0_energy">    -28.19671712 </i>
   </energy>
  </scstep>
  <scstep>
   <time name="total">    0.42    0.42</time>
   <energy>
    <i name="e_fr_energy">    -28.32920501 </i>
    <i name="e_wo_entrp">    -28.35489089 </i>
    <i name="e_0_energy">    -28.33776697 </i>
   </energy>
  </scstep>
  <scstep>
   <time name="total">    0.41    0.42</time>
   <energy>
    <i name="e_fr_energy">    -28.36358361 </i>
    <i name="e_wo_entrp">    -28.38927066 </i>
    <i name="e_0_energy">    -28.37214596 </i>
   </energy>
  </scstep>
  <scstep>
   <time name="total">    0.41    0.42</time>
   <energy>
    <i name="e_fr_energy">    -28.37352799 </i>
    <i name="e_wo_entrp">    -28.39921613 </i>
    <i name="e_0_energy">    -28.38209071 </i>
   </energy>
  </scstep>
  <scstep>
   <time name="total">    0.42    0.42</time>
   <energy>
    <i name="e_fr_energy">    -28.37581139 </i>
    <i name="e_wo_entrp">    -28.40150025 </i>
    <i name="e_0_energy">    -28.38437435 </i>
   </energy>
  </scstep>
  <scstep>
   <time name="total">    0.41    0.42</time>
   <energy>
    <i name="e_fr_energy">    -28.37641276 </i>
    <i name="e_wo_entrp">    -28.40210199 </i>
    <i name="e_0_energy">    -28.38497584 </i>
   </energy>
  </scstep>
  <scstep>
   <time name="total">    0.41    0.42</time>
   <energy>
    <i name="e_fr_energy">    -28.37660741 </i>
    <i name="e_wo_entrp">    -28.40229668 </i>
    <i name="e_0_energy">    -28.38517050 </i>
   </energy>
  </scstep>
  <scstep>
   <time name="total">    0.41    0.42</time>
   <energy>
    <i name="e_fr_energy">    -28.37667592 </i>
    <i name="e_wo_entrp">    -28.40236493 </i>
    <i name="e_0_energy">    -28.38523892 </i>
   </energy>
  </scstep>
  <scstep>
   <time name="total">    0.41    0.42</time>
   <energy>
    <i name="e_fr_energy">    -28.37669773 </i>
    <i name="e_wo_entrp">    -28.40238637 </i>
    <i name="e_0_energy">    -28.38526061 </i>
   </energy>
  </scstep>
  <scstep>
   <time name="total">    0.41    0.42</time>
   <energy>
    <i name="e_fr_energy">    -28.37670440 </i>
    <i name="e_wo_entrp">    -28.40239258 </i>
    <i name="e_0_energy">    -28.38526712 </i>
   </energy>
  </scstep>
  <scstep>
   <time name="total">    0.41    0.42</time>
   <energy>
    <i name="e_fr_energy">    -28.37670659 </i>
    <i name="e_wo_entrp">    -28.40239433 </i>
    <i name="e_0_energy">    -28.38526917 </i>
   </energy>
  </scstep>
  <scstep>
   <time name="total">    0.42    0.42</time>
   <energy>
    <i name="e_fr_energy">    -28.37670730 </i>
    <i name="e_wo_entrp">    -28.40239469 </i>
    <i name="e_0_energy">    -28.38526976 </i>
   </energy>
  </scstep>
  <scstep>
   <time name="total">    0.42    0.42</time>
   <energy>
    <i name="e_fr_energy">    -28.37670753 </i>
    <i name="e_wo_entrp">    -28.40239455 </i>
    <i name="e_0_energy">    -28.38526987 </i>
   </energy>
  </scstep>
  <scstep>
   <time name="total">    0.41    0.42</time>
   <energy>
    <i name="e_fr_energy">    -28.37670762 </i>
    <i name="e_wo_entrp">    -28.40239435 </i>
    <i name="e_0_energy">    -28.38526986 </i>
   </energy>
  </scstep>
  <scstep>
   <time name="total">    0.41    0.42</time>
   <energy>
    <i name="e_fr_energy">    -28.37670765 </i>
    <i name="e_wo_entrp">    -28.40239411 </i>
    <i name="e_0_energy">    -28.38526981 </i>
   </energy>
  </scstep>
  <scstep>
   <time name="total">    0.41    0.42</time>
   <energy>
    <i name="e_fr_energy">    -28.37670767 </i>
    <i name="e_wo_entrp">    -28.40239386 </i>
    <i name="e_0_energy">    -28.38526973 </i>
   </energy>
  </scstep>
  <scstep>
   <time name="total">    0.45    0.45</time>
   <energy>
    <i name="alphaZ">      1.06967730 </i>
    <i name="ewald">    302.16646389 </i>
    <i name="hartreedc">  -1152.01319729 </i>
    <i name="XCdc">     53.59343701 </i>
    <i name="pawpsdc">   1671.21519135 </i>
    <i name="pawaedc">  -1673.75449955 </i>
    <i name="eentropy">      0.02568593 </i>
    <i name="bandstr">   -281.68771328 </i>
    <i name="atom">   1004.25233184 </i>
    <i name="e_fr_energy">    -28.37670768 </i>
    <i name="e_wo_entrp">    -28.40239361 </i>
    <i name="e_0_energy">    -28.38526965 </i>
   </energy>
  </scstep>
  <structure>
   <crystal>
    <varray name="basis" >
     <v>      10.00000000       0.00000000       0.00000000 </v>
     <v>       0.00000000      10.00000000       0.00000000 </v>
     <v>       0.00000000       0.00000000      10.00000000 </v>
    </varray>
    <i name="volume">   1000.00000000 </i>
    <varray name="rec_basis" >
     <v>       0.10000000       0.00000000       0.00000000 </v>
     <v>       0.00000000       0.10000000       0.00000000 </v>
     <v>       0.00000000       0.00000000       0.10000000 </v>
    </varray>
   </crystal>
   <varray name="positions" >
    <v>       0.50000000       0.50200000       0.50000000 </v>
    <v>       0.50000001       0.50000000       0.61634621 </v>
    <v>       0.49999999       0.50000000       0.38365379 </v>
   </varray>
  </structure>
  <varray name="forces" >
   <v>      -0.00080543      -0.29530315      -0.00000240 </v>
   <v>       0.00040379       0.14765281      -0.01254489 </v>
   <v>       0.00040164       0.14765034       0.01254729 </v>
  </varray>
  <varray name="stress" >
   <v>      -0.55023018      -0.00174599      -0.00002365 </v>
   <v>      -0.00174598      -0.57562255      -0.00002551 </v>
   <v>      -0.00002366      -0.00002550      -0.50637983 </v>
  </varray>
  <energy>
   <i name="e_fr_energy">    -28.37670768 </i>
   <i name="e_wo_entrp">    -28.40239361 </i>
   <i name="e_0_energy">    -28.38526965 </i>
  </energy>
  <time name="totalsc">    8.28    8.34</time>
 </calculation>
 <calculation>
  <scstep>
   <time name="total">    0.41    0.41</time>
   <energy>
    <i name="alphaZ">      1.06967730 </i>
    <i name="ewald">    302.16646436 </i>
    <i name="hartreedc">  -1152.39595827 </i>
    <i name="XCdc">     53.62845245 </i>
    <i name="pawpsdc">   1880.08557795 </i>
    <i name="pawaedc">  -1882.62864409 </i>
    <i name="eentropy">      0.02563784 </i>
    <i name="bandstr">   -281.01540854 </i>
    <i name="atom">   1004.25233184 </i>
    <i name="e_fr_energy">    -28.00020094 </i>
    <i name="e_wo_entrp">    -28.02583877 </i>
    <i name="e_0_energy">    -28.00874688 </i>
   </energy>
  </scstep>
  <scstep>
   <time name="total">    0.42    0.42</time>
   <energy>
    <i name="e_fr_energy">    -28.28055727 </i>
    <i name="e_wo_entrp">    -28.30620386 </i>
    <i name="e_0_energy">    -28.28910613 </i>
   </energy>
  </scstep>
  <scstep>
   <time name="total">    0.41    0.42</time>
   <energy>
    <i name="e_fr_energy">    -28.34989472 </i>
    <i name="e_wo_entrp">    -28.37555590 </i>
    <i name="e_0_energy">    -28.35844844 </i>
   </energy>
  </scstep>
  <scstep>
   <time name="total">    0.41    0.42</time>
   <energy>
    <i name="e_fr_energy">    -28.37004246 </i>
    <i name="e_wo_entrp">    -28.39571858 </i>
    <i name="e_0_energy">    -28.37860116 </i>
   </energy>
  </scstep>
  <scstep>
   <time name="total">    0.41    0.42</time>
   <energy>
    <i name="e_fr_energy">    -28.37475459 </i>
    <i name="e_wo_entrp">    -28.40044351 </i>
    <i name="e_0_energy">    -28.38331756 </i>
   </energy>
  </scstep>
  <scstep>
   <time name="total">    0.41    0.42</time>
   <energy>
    <i name="e_fr_energy">    -28.37604158 </i>
    <i name="e_wo_entrp">    -28.40173991 </i>
    <i name="e_0_energy">    -28.38460769 </i>
   </energy>
  </scstep>
  <scstep>
   <time name="total">    0.42    0.42</time>
   <energy>
    <i name="e_fr_energy">    -28.37647430 </i>
    <i name="e_wo_entrp">    -28.40217844 </i>
    <i name="e_0_energy">    -28.38504234 </i>
   </energy>
  </scstep>
  <scstep>
   <time name="total">    0.42    0.42</time>
   <energy>
    <i name="e_fr_energy">    -28.37663440 </i>
    <i name="e_wo_entrp">    -28.40234039 </i>
    <i name="e_0_energy">    -28.38520307 </i>
   </energy>
  </scstep>
  <scstep>
   <time name="total">    0.42    0.42</time>
   <energy>
    <i name="e_fr_energy">    -28.37668377 </i>
    <i name="e_wo_entrp">    -28.40238928 </i>
    <i name="e_0_energy">    -28.38525227 </i>
   </energy>
  </scstep>
  <scstep>
   <time name="total">    0.41    0.42</time>
   <energy>
    <i name="e_fr_energy">    -28.37669930 </i>
    <i name="e_wo_entrp">    -28.40240282 </i>
    <i name="e_0_energy">    -28.38526714 </i>
   </energy>
  </scstep>
  <scstep>
   <time name="total">    0.41    0.42</time>
   <energy>
    <i name="e_fr_energy">    -28.37670465 </i>
    <i name="e_wo_entrp">    -28.40240545 </i>
    <i name="e_0_energy">    -28.38527158 </i>
   </energy>
  </scstep>
  <scstep>
   <time name="total">    0.41    0.42</time>
   <energy>
    <i name="e_fr_energy">    -28.37670660 </i>
    <i name="e_wo_entrp">    -28.40240477 </i>
    <i name="e_0_energy">    -28.38527265 </i>
   </energy>
  </scstep>
  <scstep>
   <time name="total">    0.41    0.42</time>
   <energy>
    <i name="e_fr_energy">    -28.37670730 </i>
    <i name="e_wo_entrp">    -28.40240266 </i>
    <i name="e_0_energy">    -28.38527242 </i>
   </energy>
  </scstep>
  <scstep>
   <time name="total">    0.41    0.42</time>
   <energy>
    <i name="e_fr_energy">    -28.37670759 </i>
    <i name="e_wo_entrp">    -28.40240079 </i>
    <i name="e_0_energy">    -28.38527199 </i>
   </energy>
  </scstep>
  <scstep>
   <time name="total">    0.41    0.42</time>
   <energy>
    <i name="e_fr_energy">    -28.37670768 </i>
    <i name="e_wo_entrp">    -28.40239879 </i>
    <i name="e_0_energy">    -28.38527139 </i>
   </energy>
  </scstep>
  <scstep>
   <time name="total">    0.41    0.42</time>
   <energy>
    <i name="e_fr_energy">    -28.37670773 </i>
    <i name="e_wo_entrp">    -28.40239686 </i>
    <i name="e_0_energy">    -28.38527077 </i>
   </energy>
  </scstep>
  <scstep>
   <time name="total">    0.41    0.42</time>
   <energy>
    <i name="e_fr_energy">    -28.37670774 </i>
    <i name="e_wo_entrp">    -28.40239539 </i>
    <i name="e_0_energy">    -28.38527029 </i>
   </energy>
  </scstep>
  <scstep>
   <time name="total">    0.42    0.42</time>
   <energy>
    <i name="e_fr_energy">    -28.37670775 </i>
    <i name="e_wo_entrp">    -28.40239355 </i>
    <i name="e_0_energy">    -28.38526969 </i>
   </energy>
  </scstep>
  <scstep>
   <time name="total">    0.42    0.42</time>
   <energy>
    <i name="e_fr_energy">    -28.37670776 </i>
    <i name="e_wo_entrp">    -28.40239078 </i>
    <i name="e_0_energy">    -28.38526877 </i>
   </energy>
  </scstep>
  <scstep>
   <time name="total">    0.41    0.42</time>
   <energy>
    <i name="e_fr_energy">    -28.37670777 </i>
    <i name="e_wo_entrp">    -28.40238813 </i>
    <i name="e_0_energy">    -28.38526789 </i>
   </energy>
  </scstep>
  <scstep>
   <time name="total">    0.41    0.42</time>
   <energy>
    <i name="e_fr_energy">    -28.37670779 </i>
    <i name="e_wo_entrp">    -28.40238601 </i>
    <i name="e_0_energy">    -28.38526719 </i>
   </energy>
  </scstep>
  <scstep>
   <time name="total">    0.41    0.42</time>
   <energy>
    <i name="e_fr_energy">    -28.37670782 </i>
    <i name="e_wo_entrp">    -28.40238492 </i>
    <i name="e_0_energy">    -28.38526685 </i>
   </energy>
  </scstep>
  <scstep>
   <time name="total">    0.42    0.42</time>
   <energy>
    <i name="e_fr_energy">    -28.37670786 </i>
    <i name="e_wo_entrp">    -28.40238649 </i>
    <i name="e_0_energy">    -28.38526740 </i>
   </energy>
  </scstep>
  <scstep>
   <time name="total">    0.42    0.42</time>
   <energy>
    <i name="e_fr_energy">    -28.37670797 </i>
    <i name="e_wo_entrp">    -28.40239860 </i>
    <i name="e_0_energy">    -28.38527151 </i>
   </energy>
  </scstep>
  <scstep>
   <time name="total">    0.41    0.42</time>
   <energy>
    <i name="e_fr_energy">    -28.37670827 </i>
    <i name="e_wo_entrp">    -28.40241590 </i>
    <i name="e_0_energy">    -28.38527748 </i>
   </energy>
  </scstep>
  <scstep>
   <time name="total">    0.41    0.42</time>
   <energy>
    <i name="e_fr_energy">    -28.37670856 </i>
    <i name="e_wo_entrp">    -28.40241317 </i>
    <i name="e_0_energy">    -28.38527677 </i>
   </energy>
  </scstep>
  <scstep>
   <time name="total">    0.42    0.42</time>
   <energy>
    <i name="e_fr_energy">    -28.37670922 </i>
    <i name="e_wo_entrp">    -28.40240960 </i>
    <i name="e_0_energy">    -28.38527601 </i>
   </energy>
  </scstep>
  <scstep>
   <time name="total">    0.41    0.42</time>
   <energy>
    <i name="e_fr_energy">    -28.37670954 </i>
    <i name="e_wo_entrp">    -28.40240533 </i>
    <i name="e_0_energy">    -28.38527480 </i>
   </energy>
  </scstep>
  <scstep>
   <time name="total">    0.41    0.42</time>
   <energy>
    <i name="e_fr_energy">    -28.37670973 </i>
    <i name="e_wo_entrp">    -28.40240148 </i>
    <i name="e_0_energy">    -28.38527364 </i>
   </energy>
  </scstep>
  <scstep>
   <time name="total">    0.41    0.42</time>
   <energy>
    <i name="e_fr_energy">    -28.37670982 </i>
    <i name="e_wo_entrp">    -28.40239854 </i>
    <i name="e_0_energy">    -28.38527273 </i>
   </energy>
  </scstep>
  <scstep>
   <time name="total">    0.41    0.42</time>
   <energy>
    <i name="e_fr_energy">    -28.37670987 </i>
    <i name="e_wo_entrp">    -28.40239574 </i>
    <i name="e_0_energy">    -28.38527183 </i>
   </energy>
  </scstep>
  <scstep>
   <time name="total">    0.42    0.42</time>
   <energy>
    <i name="e_fr_energy">    -28.37670991 </i>
    <i name="e_wo_entrp">    -28.40239399 </i>
    <i name="e_0_energy">    -28.38527127 </i>
   </energy>
  </scstep>
  <scstep>
   <time name="total">    0.41    0.42</time>
   <energy>
    <i name="e_fr_energy">    -28.37670993 </i>
    <i name="e_wo_entrp">    -28.40239142 </i>
    <i name="e_0_energy">    -28.38527043 </i>
   </energy>
  </scstep>
  <scstep>
   <time name="total">    0.41    0.42</time>
   <energy>
    <i name="e_fr_energy">    -28.37670998 </i>
    <i name="e_wo_entrp">    -28.40238738 </i>
    <i name="e_0_energy">    -28.38526911 </i>
   </energy>
  </scstep>
  <scstep>
   <time name="total">    0.41    0.42</time>
   <energy>
    <i name="e_fr_energy">    -28.37671007 </i>
    <i name="e_wo_entrp">    -28.40238178 </i>
    <i name="e_0_energy">    -28.38526731 </i>
   </energy>
  </scstep>
  <scstep>
   <time name="total">    0.42    0.42</time>
   <energy>
    <i name="e_fr_energy">    -28.37671034 </i>
    <i name="e_wo_entrp">    -28.40238143 </i>
    <i name="e_0_energy">    -28.38526737 </i>
   </energy>
  </scstep>
  <scstep>
   <time name="total">    0.42    0.42</time>
   <energy>
    <i name="e_fr_energy">    -28.37671132 </i>
    <i name="e_wo_entrp">    -28.40242931 </i>
    <i name="e_0_energy">    -28.38528398 </i>
   </energy>
  </scstep>
  <scstep>
   <time name="total">    0.41    0.42</time>
   <energy>
    <i name="e_fr_energy">    -28.37671320 </i>
    <i name="e_wo_entrp">    -28.40248118 </i>
    <i name="e_0_energy">    -28.38530252 </i>
   </energy>
  </scstep>
  <scstep>
   <time name="total">    0.41    0.42</time>
   <energy>
    <i name="e_fr_energy">    -28.37671388 </i>
    <i name="e_wo_entrp">    -28.40227210 </i>
    <i name="e_0_energy">    -28.38523329 </i>
   </energy>
  </scstep>
  <scstep>
   <time name="total">    0.41    0.42</time>
   <energy>
    <i name="e_fr_energy">    -28.37674551 </i>
    <i name="e_wo_entrp">    -28.40249113 </i>
    <i name="e_0_energy">    -28.38532738 </i>
   </energy>
  </scstep>
  <scstep>
   <time name="total">    0.42    0.42</time>
   <energy>
    <i name="e_fr_energy">    -28.37672627 </i>
    <i name="e_wo_entrp">    -28.40249626 </i>
    <i name="e_0_energy">    -28.38531626 </i>
   </energy>
  </scstep>
  <scstep>
   <time name="total">    0.41    0.42</time>
   <energy>
    <i name="e_fr_energy">    -28.37673161 </i>
    <i name="e_wo_entrp">    -28.40253410 </i>
    <i name="e_0_energy">    -28.38533244 </i>
   </energy>
  </scstep>
  <scstep>
   <time name="total">    0.42    0.42</time>
   <energy>
    <i name="e_fr_energy">    -28.37673079 </i>
    <i name="e_wo_entrp">    -28.40253020 </i>
    <i name="e_0_energy">    -28.38533059 </i>
   </energy>
  </scstep>
  <scstep>
   <time name="total">    0.41    0.42</time>
   <energy>
    <i name="e_fr_energy">    -28.37673107 </i>
    <i name="e_wo_entrp">    -28.40253713 </i>
    <i name="e_0_energy">    -28.38533309 </i>
   </energy>
  </scstep>
  <scstep>
   <time name="total">    0.42    0.42</time>
   <energy>
    <i name="e_fr_energy">    -28.37673154 </i>
    <i name="e_wo_entrp">    -28.40253442 </i>
    <i name="e_0_energy">    -28.38533250 </i>
   </energy>
  </scstep>
  <scstep>
   <time name="total">    1.03    1.04</time>
   <energy>
    <i name="e_fr_energy">    -28.37673297 </i>
    <i name="e_wo_entrp">    -28.40191649 </i>
    <i name="e_0_energy">    -28.38512748 </i>
   </energy>
  </scstep>
  <scstep>
   <time name="total">    0.41    0.42</time>
   <energy>
    <i name="e_fr_energy">    -28.37668092 </i>
    <i name="e_wo_entrp">    -28.40194824 </i>
    <i name="e_0_energy">    -28.38510336 </i>
   </energy>
  </scstep>
  <scstep>
   <time name="total">    0.41    0.42</time>
   <energy>
    <i name="e_fr_energy">    -28.37670222 </i>
    <i name="e_wo_entrp">    -28.40215244 </i>
    <i name="e_0_energy">    -28.38518563 </i>
   </energy>
  </scstep>
  <scstep>
   <time name="total">    0.42    0.42</time>
   <energy>
    <i name="e_fr_energy">    -28.37672046 </i>
    <i name="e_wo_entrp">    -28.40232973 </i>
    <i name="e_0_energy">    -28.38525689 </i>
   </energy>
  </scstep>
  <scstep>
   <time name="total">    0.41    0.42</time>
   <energy>
    <i name="e_fr_energy">    -28.37673426 </i>
    <i name="e_wo_entrp">    -28.40240096 </i>
    <i name="e_0_energy">    -28.38528983 </i>
   </energy>
  </scstep>
  <scstep>
   <time name="total">    0.41    0.42</time>
   <energy>
    <i name="e_fr_energy">    -28.37673902 </i>
    <i name="e_wo_entrp">    -28.40242213 </i>
    <i name="e_0_energy">    -28.38530006 </i>
   </energy>
  </scstep>
  <scstep>
   <time name="total">    0.41    0.42</time>
   <energy>
    <i name="e_fr_energy">    -28.37674016 </i>
    <i name="e_wo_entrp">    -28.40243108 </i>
    <i name="e_0_energy">    -28.38530380 </i>
   </energy>
  </scstep>
  <scstep>
   <time name="total">    0.41    0.42</time>
   <energy>
    <i name="e_fr_energy">    -28.37674056 </i>
    <i name="e_wo_entrp">    -28.40243989 </i>
    <i name="e_0_energy">    -28.38530700 </i>
   </energy>
  </scstep>
  <scstep>
   <time name="total">    0.41    0.42</time>
   <energy>
    <i name="e_fr_energy">    -28.37674091 </i>
    <i name="e_wo_entrp">    -28.40244651 </i>
    <i name="e_0_energy">    -28.38530944 </i>
   </energy>
  </scstep>
  <scstep>
   <time name="total">    0.42    0.42</time>
   <energy>
    <i name="e_fr_energy">    -28.37674117 </i>
    <i name="e_wo_entrp">    -28.40245135 </i>
    <i name="e_0_energy">    -28.38531123 </i>
   </energy>
  </scstep>
  <scstep>
   <time name="total">    0.41    0.42</time>
   <energy>
    <i name="e_fr_energy">    -28.37674146 </i>
    <i name="e_wo_entrp">    -28.40245601 </i>
    <i name="e_0_energy">    -28.38531298 </i>
   </energy>
  </scstep>
  <scstep>
   <time name="total">    0.41    0.42</time>
   <energy>
    <i name="e_fr_energy">    -28.37674208 </i>
    <i name="e_wo_entrp">    -28.40246712 </i>
    <i name="e_0_energy">    -28.38531710 </i>
   </energy>
  </scstep>
  <scstep>
   <time name="total">    0.41    0.43</time>
   <energy>
    <i name="e_fr_energy">    -28.37674395 </i>
    <i name="e_wo_entrp">    -28.40250890 </i>
    <i name="e_0_energy">    -28.38533226 </i>
   </energy>
  </scstep>
  <scstep>
   <time name="total">    0.41    0.42</time>
   <energy>
    <i name="e_fr_energy">    -28.37674844 </i>
    <i name="e_wo_entrp">    -28.40255438 </i>
    <i name="e_0_energy">    -28.38535042 </i>
   </energy>
  </scstep>
  <scstep>
   <time name="total">    0.42    0.42</time>
   <energy>
    <i name="e_fr_energy">    -28.37675386 </i>
    <i name="e_wo_entrp">    -28.39948623 </i>
    <i name="e_0_energy">    -28.38433131 </i>
   </energy>
  </scstep>
  <scstep>
   <time name="total">    0.41    0.42</time>
   <energy>
    <i name="e_fr_energy">    -28.37779555 </i>
    <i name="e_wo_entrp">    -28.40343982 </i>
    <i name="e_0_energy">    -28.38634364 </i>
   </energy>
  </scstep>
  <scstep>
   <time name="total">    0.42    0.42</time>
   <energy>
    <i name="e_fr_energy">    -28.37625268 </i>
    <i name="e_wo_entrp">    -28.40196857 </i>
    <i name="e_0_energy">    -28.38482464 </i>
   </energy>
  </scstep>
  <scstep>
   <time name="total">    0.42    0.43</time>
   <energy>
    <i name="e_fr_energy">    -28.37676513 </i>
    <i name="e_wo_entrp">    -28.40253570 </i>
    <i name="e_0_energy">    -28.38535532 </i>
   </energy>
  </scstep>
  <scstep>
   <time name="total">    0.41    0.42</time>
   <energy>
    <i name="e_fr_energy">    -28.37678252 </i>
    <i name="e_wo_entrp">    -28.40258583 </i>
    <i name="e_0_energy">    -28.38538362 </i>
   </energy>
  </scstep>
  <scstep>
   <time name="total">    0.41    0.42</time>
   <energy>
    <i name="e_fr_energy">    -28.37678575 </i>
    <i name="e_wo_entrp">    -28.40256510 </i>
    <i name="e_0_energy">    -28.38537887 </i>
   </energy>
  </scstep>
  <scstep>
   <time name="total">    0.41    0.42</time>
   <energy>
    <i name="e_fr_energy">    -28.37678868 </i>
    <i name="e_wo_entrp">    -28.40255226 </i>
    <i name="e_0_energy">    -28.38537654 </i>
   </energy>
  </scstep>
  <scstep>
   <time name="total">    0.41    0.42</time>
   <energy>
    <i name="e_fr_energy">    -28.37678909 </i>
    <i name="e_wo_entrp">    -28.40252529 </i>
    <i name="e_0_energy">    -28.38536783 </i>
   </energy>
  </scstep>
  <scstep>
   <time name="total">    0.42    0.42</time>
   <energy>
    <i name="e_fr_energy">    -28.37678995 </i>
    <i name="e_wo_entrp">    -28.40249798 </i>
    <i name="e_0_energy">    -28.38535930 </i>
   </energy>
  </scstep>
  <scstep>
   <time name="total">    0.41    0.42</time>
   <energy>
    <i name="e_fr_energy">    -28.37679062 </i>
    <i name="e_wo_entrp">    -28.40247609 </i>
    <i name="e_0_energy">    -28.38535244 </i>
   </energy>
  </scstep>
  <scstep>
   <time name="total">    0.42    0.42</time>
   <energy>
    <i name="e_fr_energy">    -28.37679101 </i>
    <i name="e_wo_entrp">    -28.40246169 </i>
    <i name="e_0_energy">    -28.38534790 </i>
   </energy>
  </scstep>
  <scstep>
   <time name="total">    0.41    0.42</time>
   <energy>
    <i name="e_fr_energy">    -28.37679122 </i>
    <i name="e_wo_entrp">    -28.40245381 </i>
    <i name="e_0_energy">    -28.38534542 </i>
   </energy>
  </scstep>
  <scstep>
   <time name="total">    0.41    0.42</time>
   <energy>
    <i name="e_fr_energy">    -28.37679135 </i>
    <i name="e_wo_entrp">    -28.40245011 </i>
    <i name="e_0_energy">    -28.38534427 </i>
   </energy>
  </scstep>
  <scstep>
   <time name="total">    0.41    0.42</time>
   <energy>
    <i name="e_fr_energy">    -28.37679145 </i>
    <i name="e_wo_entrp">    -28.40244937 </i>
    <i name="e_0_energy">    -28.38534409 </i>
   </energy>
  </scstep>
  <scstep>
   <time name="total">    0.41    0.42</time>
   <energy>
    <i name="e_fr_energy">    -28.37679153 </i>
    <i name="e_wo_entrp">    -28.40245124 </i>
    <i name="e_0_energy">    -28.38534477 </i>
   </energy>
  </scstep>
  <scstep>
   <time name="total">    0.41    0.42</time>
   <energy>
    <i name="e_fr_energy">    -28.37679161 </i>
    <i name="e_wo_entrp">    -28.40245547 </i>
    <i name="e_0_energy">    -28.38534623 </i>
   </energy>
  </scstep>
  <scstep>
   <time name="total">    0.41    0.42</time>
   <energy>
    <i name="e_fr_energy">    -28.37679169 </i>
    <i name="e_wo_entrp">    -28.40246191 </i>
    <i name="e_0_energy">    -28.38534843 </i>
   </energy>
  </scstep>
  <scstep>
   <time name="total">    0.41    0.42</time>
   <energy>
    <i name="e_fr_energy">    -28.37679178 </i>
    <i name="e_wo_entrp">    -28.40247112 </i>
    <i name="e_0_energy">    -28.38535156 </i>
   </energy>
  </scstep>
  <scstep>
   <time name="total">    0.41    0.42</time>
   <energy>
    <i name="e_fr_energy">    -28.37679187 </i>
    <i name="e_wo_entrp">    -28.40248309 </i>
    <i name="e_0_energy">    -28.38535561 </i>
   </energy>
  </scstep>
  <scstep>
   <time name="total">    0.42    0.42</time>
   <energy>
    <i name="e_fr_energy">    -28.37679198 </i>
    <i name="e_wo_entrp">    -28.40249648 </i>
    <i name="e_0_energy">    -28.38536015 </i>
   </energy>
  </scstep>
  <scstep>
   <time name="total">    0.41    0.42</time>
   <energy>
    <i name="e_fr_energy">    -28.37679209 </i>
    <i name="e_wo_entrp">    -28.40250993 </i>
    <i name="e_0_energy">    -28.38536471 </i>
   </energy>
  </scstep>
  <scstep>
   <time name="total">    0.42    0.42</time>
   <energy>
    <i name="e_fr_energy">    -28.37679222 </i>
    <i name="e_wo_entrp">    -28.40252226 </i>
    <i name="e_0_energy">    -28.38536890 </i>
   </energy>
  </scstep>
  <scstep>
   <time name="total">    0.42    0.42</time>
   <energy>
    <i name="e_fr_energy">    -28.37679234 </i>
    <i name="e_wo_entrp">    -28.40253233 </i>
    <i name="e_0_energy">    -28.38537234 </i>
   </energy>
  </scstep>
  <scstep>
   <time name="total">    0.41    0.42</time>
   <energy>
    <i name="e_fr_energy">    -28.37679247 </i>
    <i name="e_wo_entrp">    -28.40253983 </i>
    <i name="e_0_energy">    -28.38537492 </i>
   </energy>
  </scstep>
  <scstep>
   <time name="total">    0.41    0.42</time>
   <energy>
    <i name="e_fr_energy">    -28.37679259 </i>
    <i name="e_wo_entrp">    -28.40254506 </i>
    <i name="e_0_energy">    -28.38537674 </i>
   </energy>
  </scstep>
  <scstep>
   <time name="total">    0.41    0.42</time>
   <energy>
    <i name="e_fr_energy">    -28.37679271 </i>
    <i name="e_wo_entrp">    -28.40254849 </i>
    <i name="e_0_energy">    -28.38537797 </i>
   </energy>
  </scstep>
  <scstep>
   <time name="total">    0.42    0.42</time>
   <energy>
    <i name="e_fr_energy">    -28.37679283 </i>
    <i name="e_wo_entrp">    -28.40255010 </i>
    <i name="e_0_energy">    -28.38537859 </i>
   </energy>
  </scstep>
  <scstep>
   <time name="total">    0.41    0.42</time>
   <energy>
    <i name="e_fr_energy">    -28.37679296 </i>
    <i name="e_wo_entrp">    -28.40254974 </i>
    <i name="e_0_energy">    -28.38537856 </i>
   </energy>
  </scstep>
  <scstep>
   <time name="total">    0.41    0.42</time>
   <energy>
    <i name="e_fr_energy">    -28.37679310 </i>
    <i name="e_wo_entrp">    -28.40254726 </i>
    <i name="e_0_energy">    -28.38537782 </i>
   </energy>
  </scstep>
  <scstep>
   <time name="total">    0.41    0.42</time>
   <energy>
    <i name="e_fr_energy">    -28.37679324 </i>
    <i name="e_wo_entrp">    -28.40254213 </i>
    <i name="e_0_energy">    -28.38537620 </i>
   </energy>
  </scstep>
  <scstep>
   <time name="total">    0.41    0.42</time>
   <energy>
    <i name="e_fr_energy">    -28.37679340 </i>
    <i name="e_wo_entrp">    -28.40253400 </i>
    <i name="e_0_energy">    -28.38537360 </i>
   </energy>
  </scstep>
  <scstep>
   <time name="total">    0.42    0.42</time>
   <energy>
    <i name="e_fr_energy">    -28.37679359 </i>
    <i name="e_wo_entrp">    -28.40252268 </i>
    <i name="e_0_energy">    -28.38536995 </i>
   </energy>
  </scstep>
  <scstep>
   <time name="total">    0.41    0.42</time>
   <energy>
    <i name="e_fr_energy">    -28.37679380 </i>
    <i name="e_wo_entrp">    -28.40250850 </i>
    <i name="e_0_energy">    -28.38536537 </i>
   </energy>
  </scstep>
  <scstep>
   <time name="total">    0.41    0.42</time>
   <energy>
    <i name="e_fr_energy">    -28.37679404 </i>
    <i name="e_wo_entrp">    -28.40250975 </i>
    <i name="e_0_energy">    -28.38536594 </i>
   </energy>
  </scstep>
  <scstep>
   <time name="total">    0.41    0.42</time>
   <energy>
    <i name="e_fr_energy">    -28.37679520 </i>
    <i name="e_wo_entrp">    -28.40251174 </i>
    <i name="e_0_energy">    -28.38536738 </i>
   </energy>
  </scstep>
  <scstep>
   <time name="total">    0.41    0.42</time>
   <energy>
    <i name="e_fr_energy">    -28.37679562 </i>
    <i name="e_wo_entrp">    -28.40251278 </i>
    <i name="e_0_energy">    -28.38536800 </i>
   </energy>
  </scstep>
  <scstep>
   <time name="total">    0.41    0.42</time>
   <energy>
    <i name="e_fr_energy">    -28.37679584 </i>
    <i name="e_wo_entrp">    -28.40251300 </i>
    <i name="e_0_energy">    -28.38536823 </i>
   </energy>
  </scstep>
  <scstep>
   <time name="total">    0.41    0.42</time>
   <energy>
    <i name="e_fr_energy">    -28.37679593 </i>
    <i name="e_wo_entrp">    -28.40251222 </i>
    <i name="e_0_energy">    -28.38536803 </i>
   </energy>
  </scstep>
  <scstep>
   <time name="total">    0.41    0.42</time>
   <energy>
    <i name="e_fr_energy">    -28.37679602 </i>
    <i name="e_wo_entrp">    -28.40251013 </i>
    <i name="e_0_energy">    -28.38536739 </i>
   </energy>
  </scstep>
  <scstep>
   <time name="total">    0.41    0.42</time>
   <energy>
    <i name="e_fr_energy">    -28.37679615 </i>
    <i name="e_wo_entrp">    -28.40250640 </i>
    <i name="e_0_energy">    -28.38536623 </i>
   </energy>
  </scstep>
  <scstep>
   <time name="total">    0.41    0.42</time>
   <energy>
    <i name="e_fr_energy">    -28.37679639 </i>
    <i name="e_wo_entrp">    -28.40250211 </i>
    <i name="e_0_energy">    -28.38536496 </i>
   </energy>
  </scstep>
  <scstep>
   <time name="total">    0.41    0.42</time>
   <energy>
    <i name="e_fr_energy">    -28.37679676 </i>
    <i name="e_wo_entrp">    -28.40250033 </i>
    <i name="e_0_energy">    -28.38536461 </i>
   </energy>
  </scstep>
  <scstep>
   <time name="total">    0.41    0.42</time>
   <energy>
    <i name="e_fr_energy">    -28.37679729 </i>
    <i name="e_wo_entrp">    -28.40250471 </i>
    <i name="e_0_energy">    -28.38536643 </i>
   </energy>
  </scstep>
  <scstep>
   <time name="total">    0.42    0.42</time>
   <energy>
    <i name="e_fr_energy">    -28.37679789 </i>
    <i name="e_wo_entrp">    -28.40251927 </i>
    <i name="e_0_energy">    -28.38537168 </i>
   </energy>
  </scstep>
  <scstep>
   <time name="total">    0.41    0.42</time>
   <energy>
    <i name="e_fr_energy">    -28.37679870 </i>
    <i name="e_wo_entrp">    -28.40254390 </i>
[...]
    <v>   1.33524702E-002  1.77740618E-002 -5.21509307E-001  1.47657355E-002  4.92038330E-002 -6.01950198E-001  1.59841727E-002 -7.86131588E-003 -6.01858337E-001</v>
    <v>   2.13881844E-001 -4.75530377E-001 -1.07678155E-002  2.37586166E-001 -5.45731732E-001 -1.24468253E-002  2.48601248E-001 -5.58236154E-001 -1.24118460E-002</v>
    <v>   3.07823355E-001  1.30189675E-001  8.60685178E-003  8.85345846E-001  3.86989107E-002  9.95148145E-003 -1.79479842E-001  2.65473464E-001  9.91339888E-003</v>
   </varray>
   <array name="force_constants" >
    <dimension dim="1">cart_super</dimension>
    <dimension dim="2">ion_super</dimension>
    <dimension dim="3">ion_primitive</dimension>
    <field>f_cart_prim_1</field>
    <field>f_cart_prim_2</field>
    <field>f_cart_prim_3</field>
    <set>
     <set comment="ionprim 1">
      <set comment="ion 1">
       <r>     -14.28647155     -0.02724463     -0.00000780</r>
       <r>      -0.02724463    -14.52308754     -0.00058410</r>
       <r>      -0.00000780     -0.00058410   -194.14506605</r>
      </set>
      <set comment="ion 2">
       <r>       7.20157316     -0.00357079      0.00073053</r>
       <r>      -0.01780405      7.21333285      0.00103380</r>
       <r>       0.00109810      0.00321294     97.07464478</r>
      </set>
      <set comment="ion 3">
       <r>       7.21263388     -0.02737969      0.00212438</r>
       <r>       0.00351568      7.20149287      0.00027258</r>
       <r>      -0.00110336     -0.00351226     97.07283119</r>
      </set>
     </set>
     <set comment="ionprim 2">
      <set comment="ion 1">
       <r>       7.20157316     -0.01780405      0.00109810</r>
       <r>      -0.00357079      7.21333285      0.00321294</r>
       <r>       0.00073053      0.00103380     97.07464478</r>
      </set>
      <set comment="ion 2">
       <r>      -3.62350870      0.01658748      0.00096915</r>
       <r>       0.01658748     -3.58977742      0.00055819</r>
       <r>       0.00096915      0.00055819   -105.28598585</r>
      </set>
      <set comment="ion 3">
       <r>      -3.63617283      0.03021856     -0.00077167</r>
       <r>       0.01025740     -3.56961137      0.00048979</r>
       <r>      -0.00166550     -0.00182471      8.21907770</r>
      </set>
     </set>
     <set comment="ionprim 3">
      <set comment="ion 1">
       <r>       7.21263388      0.00351568     -0.00110336</r>
       <r>      -0.02737969      7.20149287     -0.00351226</r>
       <r>       0.00212438      0.00027258     97.07283119</r>
      </set>
      <set comment="ion 2">
       <r>      -3.63617283      0.01025740     -0.00166550</r>
       <r>       0.03021856     -3.56961137     -0.00182471</r>
       <r>      -0.00077167      0.00048979      8.21907770</r>
      </set>
      <set comment="ion 3">
       <r>      -3.64608817      0.01542004     -0.00137382</r>
       <r>       0.01542004     -3.57756374      0.00035377</r>
       <r>      -0.00137382      0.00035377   -105.30205544</r>
      </set>
     </set>
    </set>
   </array>
  </dynmat>
  <time name="totalsc">    8.52    8.59</time>
  <eigenvalues>
   <array>
    <dimension dim="1">band</dimension>
    <dimension dim="2">kpoint</dimension>
    <dimension dim="3">spin</dimension>
    <field>eigene</field>
    <field>occ</field>
    <set>
     <set comment="spin 1">
      <set comment="kpoint 1">
       <r>  -32.0095    1.0000 </r>
       <r>  -30.7749    1.0000 </r>
       <r>  -15.3975    1.0000 </r>
       <r>  -14.0605    1.0000 </r>
       <r>  -14.0082    1.0000 </r>
       <r>  -13.9947    1.0000 </r>
       <r>  -10.1385    1.0349 </r>
       <r>  -10.0484    0.9651 </r>
       <r>   -0.5946    0.0000 </r>
       <r>    0.4793    0.0000 </r>
       <r>    0.4854    0.0000 </r>
       <r>    0.8120    0.0000 </r>
      </set>
     </set>
    </set>
   </array>
  </eigenvalues>
  <separator name="orbital magnetization" >
   <v name="MAGDIPOLOUT">      0.00000000      0.00000000      0.00000000</v>
  </separator>
  <dos>
   <i name="efermi">     -9.90535359 </i>
   <total>
    <array>
     <dimension dim="1">gridpoints</dimension>
     <dimension dim="2">spin</dimension>
     <field>energy</field>
     <field>total</field>
     <field>integrated</field>
     <set>
      <set comment="spin 1">
       <r>   -34.0095     0.0000     0.0000 </r>
       <r>   -33.8868     0.0000     0.0000 </r>
       <r>   -33.7641     0.0000     0.0000 </r>
       <r>   -33.6413    -0.0000    -0.0000 </r>
       <r>   -33.5186    -0.0000    -0.0000 </r>
       <r>   -33.3958    -0.0000    -0.0000 </r>
       <r>   -33.2731    -0.0000    -0.0000 </r>
       <r>   -33.1504    -0.0000    -0.0000 </r>
       <r>   -33.0276    -0.0000    -0.0000 </r>
       <r>   -32.9049    -0.0000    -0.0000 </r>
       <r>   -32.7821    -0.0000    -0.0000 </r>
       <r>   -32.6594    -0.0003    -0.0000 </r>
       <r>   -32.5367    -0.0097    -0.0012 </r>
       <r>   -32.4139    -0.1112    -0.0149 </r>
       <r>   -32.2912    -0.3915    -0.0629 </r>
       <r>   -32.1685     0.6975     0.0227 </r>
       <r>   -32.0457     5.5124     0.6993 </r>
       <r>   -31.9230     7.8433     1.6619 </r>
       <r>   -31.8002     3.2318     2.0586 </r>
       <r>   -31.6775    -0.1464     2.0406 </r>
       <r>   -31.5548    -0.2822     2.0060 </r>
       <r>   -31.4320    -0.0463     2.0003 </r>
       <r>   -31.3093    -0.0109     1.9990 </r>
       <r>   -31.1865    -0.0991     1.9868 </r>
       <r>   -31.0638    -0.3821     1.9399 </r>
       <r>   -30.9411     0.5308     2.0051 </r>
       <r>   -30.8183     5.1915     2.6423 </r>
       <r>   -30.6956     7.9378     3.6165 </r>
       <r>   -30.5729     3.5508     4.0524 </r>
       <r>   -30.4501    -0.0689     4.0439 </r>
       <r>   -30.3274    -0.3016     4.0069 </r>
       <r>   -30.2046    -0.0527     4.0004 </r>
       <r>   -30.0819    -0.0033     4.0000 </r>
       <r>   -29.9592    -0.0001     4.0000 </r>
       <r>   -29.8364    -0.0000     4.0000 </r>
       <r>   -29.7137    -0.0000     4.0000 </r>
       <r>   -29.5909    -0.0000     4.0000 </r>
       <r>   -29.4682    -0.0000     4.0000 </r>
       <r>   -29.3455     0.0000     4.0000 </r>
       <r>   -29.2227     0.0000     4.0000 </r>
       <r>   -29.1000     0.0000     4.0000 </r>
       <r>   -28.9773     0.0000     4.0000 </r>
       <r>   -28.8545     0.0000     4.0000 </r>
       <r>   -28.7318     0.0000     4.0000 </r>
       <r>   -28.6090     0.0000     4.0000 </r>
       <r>   -28.4863     0.0000     4.0000 </r>
       <r>   -28.3636     0.0000     4.0000 </r>
       <r>   -28.2408     0.0000     4.0000 </r>
       <r>   -28.1181     0.0000     4.0000 </r>
       <r>   -27.9953     0.0000     4.0000 </r>
       <r>   -27.8726     0.0000     4.0000 </r>
       <r>   -27.7499     0.0000     4.0000 </r>
       <r>   -27.6271     0.0000     4.0000 </r>
       <r>   -27.5044     0.0000     4.0000 </r>
       <r>   -27.3817     0.0000     4.0000 </r>
       <r>   -27.2589     0.0000     4.0000 </r>
       <r>   -27.1362     0.0000     4.0000 </r>
       <r>   -27.0134     0.0000     4.0000 </r>
       <r>   -26.8907     0.0000     4.0000 </r>
       <r>   -26.7680     0.0000     4.0000 </r>
       <r>   -26.6452     0.0000     4.0000 </r>
       <r>   -26.5225     0.0000     4.0000 </r>
       <r>   -26.3997     0.0000     4.0000 </r>
       <r>   -26.2770     0.0000     4.0000 </r>
       <r>   -26.1543     0.0000     4.0000 </r>
       <r>   -26.0315     0.0000     4.0000 </r>
       <r>   -25.9088     0.0000     4.0000 </r>
       <r>   -25.7861     0.0000     4.0000 </r>
       <r>   -25.6633     0.0000     4.0000 </r>
       <r>   -25.5406     0.0000     4.0000 </r>
       <r>   -25.4178     0.0000     4.0000 </r>
       <r>   -25.2951     0.0000     4.0000 </r>
       <r>   -25.1724     0.0000     4.0000 </r>
       <r>   -25.0496     0.0000     4.0000 </r>
       <r>   -24.9269     0.0000     4.0000 </r>
       <r>   -24.8041     0.0000     4.0000 </r>
       <r>   -24.6814     0.0000     4.0000 </r>
       <r>   -24.5587     0.0000     4.0000 </r>
       <r>   -24.4359     0.0000     4.0000 </r>
       <r>   -24.3132     0.0000     4.0000 </r>
       <r>   -24.1905     0.0000     4.0000 </r>
       <r>   -24.0677     0.0000     4.0000 </r>
       <r>   -23.9450     0.0000     4.0000 </r>
       <r>   -23.8222     0.0000     4.0000 </r>
       <r>   -23.6995     0.0000     4.0000 </r>
       <r>   -23.5768     0.0000     4.0000 </r>
       <r>   -23.4540     0.0000     4.0000 </r>
       <r>   -23.3313     0.0000     4.0000 </r>
       <r>   -23.2085     0.0000     4.0000 </r>
       <r>   -23.0858     0.0000     4.0000 </r>
       <r>   -22.9631     0.0000     4.0000 </r>
       <r>   -22.8403     0.0000     4.0000 </r>
       <r>   -22.7176     0.0000     4.0000 </r>
       <r>   -22.5949     0.0000     4.0000 </r>
       <r>   -22.4721     0.0000     4.0000 </r>
       <r>   -22.3494     0.0000     4.0000 </r>
       <r>   -22.2266     0.0000     4.0000 </r>
       <r>   -22.1039     0.0000     4.0000 </r>
       <r>   -21.9812     0.0000     4.0000 </r>
       <r>   -21.8584     0.0000     4.0000 </r>
       <r>   -21.7357     0.0000     4.0000 </r>
       <r>   -21.6129     0.0000     4.0000 </r>
       <r>   -21.4902     0.0000     4.0000 </r>
       <r>   -21.3675     0.0000     4.0000 </r>
       <r>   -21.2447     0.0000     4.0000 </r>
       <r>   -21.1220     0.0000     4.0000 </r>
       <r>   -20.9993     0.0000     4.0000 </r>
       <r>   -20.8765     0.0000     4.0000 </r>
       <r>   -20.7538     0.0000     4.0000 </r>
       <r>   -20.6310     0.0000     4.0000 </r>
       <r>   -20.5083     0.0000     4.0000 </r>
       <r>   -20.3856     0.0000     4.0000 </r>
       <r>   -20.2628     0.0000     4.0000 </r>
       <r>   -20.1401     0.0000     4.0000 </r>
       <r>   -20.0173     0.0000     4.0000 </r>
       <r>   -19.8946     0.0000     4.0000 </r>
       <r>   -19.7719     0.0000     4.0000 </r>
       <r>   -19.6491     0.0000     4.0000 </r>
       <r>   -19.5264     0.0000     4.0000 </r>
       <r>   -19.4037     0.0000     4.0000 </r>
       <r>   -19.2809     0.0000     4.0000 </r>
       <r>   -19.1582     0.0000     4.0000 </r>
       <r>   -19.0354     0.0000     4.0000 </r>
       <r>   -18.9127     0.0000     4.0000 </r>
       <r>   -18.7900     0.0000     4.0000 </r>
       <r>   -18.6672     0.0000     4.0000 </r>
       <r>   -18.5445     0.0000     4.0000 </r>
       <r>   -18.4218     0.0000     4.0000 </r>
       <r>   -18.2990     0.0000     4.0000 </r>
       <r>   -18.1763     0.0000     4.0000 </r>
       <r>   -18.0535     0.0000     4.0000 </r>
       <r>   -17.9308     0.0000     4.0000 </r>
       <r>   -17.8081     0.0000     4.0000 </r>
       <r>   -17.6853     0.0000     4.0000 </r>
       <r>   -17.5626     0.0000     4.0000 </r>
       <r>   -17.4398     0.0000     4.0000 </r>
       <r>   -17.3171     0.0000     4.0000 </r>
       <r>   -17.1944     0.0000     4.0000 </r>
       <r>   -17.0716    -0.0000     4.0000 </r>
       <r>   -16.9489    -0.0000     4.0000 </r>
       <r>   -16.8262    -0.0000     4.0000 </r>
       <r>   -16.7034    -0.0000     4.0000 </r>
       <r>   -16.5807    -0.0000     4.0000 </r>
       <r>   -16.4579    -0.0000     4.0000 </r>
       <r>   -16.3352    -0.0000     4.0000 </r>
       <r>   -16.2125    -0.0000     4.0000 </r>
       <r>   -16.0897    -0.0001     4.0000 </r>
       <r>   -15.9670    -0.0034     3.9996 </r>
       <r>   -15.8442    -0.0536     3.9930 </r>
       <r>   -15.7215    -0.3039     3.9557 </r>
       <r>   -15.5988    -0.0588     3.9485 </r>
       <r>   -15.4760     3.5891     4.3890 </r>
       <r>   -15.3533     7.9470     5.3644 </r>
       <r>   -15.2306     5.1531     5.9969 </r>
       <r>   -15.1078     0.5122     6.0597 </r>
       <r>   -14.9851    -0.3808     6.0130 </r>
       <r>   -14.8623    -0.0977     6.0010 </r>
       <r>   -14.7396    -0.0082     6.0000 </r>
       <r>   -14.6169    -0.0070     5.9992 </r>
       <r>   -14.4941    -0.1108     5.9856 </r>
       <r>   -14.3714    -0.7042     5.8991 </r>
       <r>   -14.2486    -0.6183     5.8232 </r>
       <r>   -14.1259     7.6421     6.7612 </r>
       <r>   -14.0032    21.7840     9.4349 </r>
       <r>   -13.8804    18.5350    11.7099 </r>
       <r>   -13.7577     3.9534    12.1951 </r>
       <r>   -13.6350    -1.0738    12.0633 </r>
       <r>   -13.5122    -0.4618    12.0067 </r>
       <r>   -13.3895    -0.0519    12.0003 </r>
       <r>   -13.2667    -0.0023    12.0000 </r>
       <r>   -13.1440    -0.0000    12.0000 </r>
       <r>   -13.0213    -0.0000    12.0000 </r>
       <r>   -12.8985    -0.0000    12.0000 </r>
       <r>   -12.7758    -0.0000    12.0000 </r>
       <r>   -12.6530    -0.0000    12.0000 </r>
       <r>   -12.5303     0.0000    12.0000 </r>
       <r>   -12.4076     0.0000    12.0000 </r>
       <r>   -12.2848     0.0000    12.0000 </r>
       <r>   -12.1621     0.0000    12.0000 </r>
       <r>   -12.0394     0.0000    12.0000 </r>
       <r>   -11.9166     0.0000    12.0000 </r>
       <r>   -11.7939    -0.0000    12.0000 </r>
       <r>   -11.6711    -0.0000    12.0000 </r>
       <r>   -11.5484    -0.0000    12.0000 </r>
       <r>   -11.4257    -0.0000    12.0000 </r>
       <r>   -11.3029    -0.0000    12.0000 </r>
       <r>   -11.1802    -0.0000    12.0000 </r>
       <r>   -11.0574    -0.0000    12.0000 </r>
       <r>   -10.9347    -0.0000    12.0000 </r>
       <r>   -10.8120    -0.0002    12.0000 </r>
       <r>   -10.6892    -0.0059    11.9992 </r>
       <r>   -10.5665    -0.0872    11.9885 </r>
       <r>   -10.4438    -0.4785    11.9298 </r>
       <r>   -10.3210    -0.1864    11.9069 </r>
       <r>   -10.1983     5.3756    12.5667 </r>
       <r>   -10.0755    13.9407    14.2778 </r>
       <r>    -9.9528    11.9768    15.7478 </r>
       <r>    -9.8301     2.9990    16.1159 </r>
       <r>    -9.7073    -0.5698    16.0460 </r>
       <r>    -9.5846    -0.3286    16.0056 </r>
       <r>    -9.4618    -0.0436    16.0003 </r>
       <r>    -9.3391    -0.0023    16.0000 </r>
       <r>    -9.2164    -0.0001    16.0000 </r>
       <r>    -9.0936    -0.0000    16.0000 </r>
       <r>    -8.9709    -0.0000    16.0000 </r>
       <r>    -8.8482    -0.0000    16.0000 </r>
       <r>    -8.7254    -0.0000    16.0000 </r>
       <r>    -8.6027     0.0000    16.0000 </r>
       <r>    -8.4799     0.0000    16.0000 </r>
       <r>    -8.3572     0.0000    16.0000 </r>
       <r>    -8.2345     0.0000    16.0000 </r>
       <r>    -8.1117     0.0000    16.0000 </r>
       <r>    -7.9890     0.0000    16.0000 </r>
       <r>    -7.8662     0.0000    16.0000 </r>
       <r>    -7.7435     0.0000    16.0000 </r>
       <r>    -7.6208     0.0000    16.0000 </r>
       <r>    -7.4980     0.0000    16.0000 </r>
       <r>    -7.3753     0.0000    16.0000 </r>
       <r>    -7.2526     0.0000    16.0000 </r>
       <r>    -7.1298     0.0000    16.0000 </r>
       <r>    -7.0071     0.0000    16.0000 </r>
       <r>    -6.8843     0.0000    16.0000 </r>
       <r>    -6.7616     0.0000    16.0000 </r>
       <r>    -6.6389     0.0000    16.0000 </r>
       <r>    -6.5161     0.0000    16.0000 </r>
       <r>    -6.3934     0.0000    16.0000 </r>
       <r>    -6.2706     0.0000    16.0000 </r>
       <r>    -6.1479     0.0000    16.0000 </r>
       <r>    -6.0252     0.0000    16.0000 </r>
       <r>    -5.9024     0.0000    16.0000 </r>
       <r>    -5.7797     0.0000    16.0000 </r>
       <r>    -5.6570     0.0000    16.0000 </r>
       <r>    -5.5342     0.0000    16.0000 </r>
       <r>    -5.4115     0.0000    16.0000 </r>
       <r>    -5.2887     0.0000    16.0000 </r>
       <r>    -5.1660     0.0000    16.0000 </r>
       <r>    -5.0433     0.0000    16.0000 </r>
       <r>    -4.9205     0.0000    16.0000 </r>
       <r>    -4.7978     0.0000    16.0000 </r>
       <r>    -4.6750     0.0000    16.0000 </r>
       <r>    -4.5523     0.0000    16.0000 </r>
       <r>    -4.4296     0.0000    16.0000 </r>
       <r>    -4.3068     0.0000    16.0000 </r>
       <r>    -4.1841     0.0000    16.0000 </r>
       <r>    -4.0614     0.0000    16.0000 </r>
       <r>    -3.9386     0.0000    16.0000 </r>
       <r>    -3.8159     0.0000    16.0000 </r>
       <r>    -3.6931     0.0000    16.0000 </r>
       <r>    -3.5704     0.0000    16.0000 </r>
       <r>    -3.4477     0.0000    16.0000 </r>
       <r>    -3.3249     0.0000    16.0000 </r>
       <r>    -3.2022     0.0000    16.0000 </r>
       <r>    -3.0794     0.0000    16.0000 </r>
       <r>    -2.9567     0.0000    16.0000 </r>
       <r>    -2.8340     0.0000    16.0000 </r>
       <r>    -2.7112     0.0000    16.0000 </r>
       <r>    -2.5885     0.0000    16.0000 </r>
       <r>    -2.4658     0.0000    16.0000 </r>
       <r>    -2.3430     0.0000    16.0000 </r>
       <r>    -2.2203    -0.0000    16.0000 </r>
       <r>    -2.0975    -0.0000    16.0000 </r>
       <r>    -1.9748    -0.0000    16.0000 </r>
       <r>    -1.8521    -0.0000    16.0000 </r>
       <r>    -1.7293    -0.0000    16.0000 </r>
       <r>    -1.6066    -0.0000    16.0000 </r>
       <r>    -1.4838    -0.0000    16.0000 </r>
       <r>    -1.3611    -0.0000    16.0000 </r>
       <r>    -1.2384    -0.0004    15.9999 </r>
       <r>    -1.1156    -0.0112    15.9986 </r>
       <r>    -0.9929    -0.1223    15.9836 </r>
       <r>    -0.8702    -0.3966    15.9349 </r>
       <r>    -0.7474     0.8531    16.0396 </r>
       <r>    -0.6247     5.7801    16.7490 </r>
       <r>    -0.5019     7.7386    17.6989 </r>
       <r>    -0.3792     2.9652    18.0628 </r>
       <r>    -0.2565    -0.2030    18.0379 </r>
       <r>    -0.1337    -0.2674    18.0051 </r>
       <r>    -0.0110    -0.0827    17.9949 </r>
       <r>     0.1118    -0.3654    17.9501 </r>
       <r>     0.2345    -0.7494    17.8581 </r>
       <r>     0.3572     3.3531    18.2696 </r>
       <r>     0.4800    13.4363    19.9188 </r>
       <r>     0.6027    13.8934    21.6240 </r>
       <r>     0.7254     6.9714    22.4797 </r>
       <r>     0.8482     7.1243    23.3541 </r>
       <r>     0.9709     5.1261    23.9833 </r>
       <r>     1.0937     0.6511    24.0632 </r>
       <r>     1.2164    -0.3936    24.0149 </r>
       <r>     1.3391    -0.1112    24.0012 </r>
       <r>     1.4619    -0.0097    24.0000 </r>
       <r>     1.5846    -0.0003    24.0000 </r>
       <r>     1.7074    -0.0000    24.0000 </r>
       <r>     1.8301    -0.0000    24.0000 </r>
       <r>     1.9528    -0.0000    24.0000 </r>
       <r>     2.0756    -0.0000    24.0000 </r>
       <r>     2.1983     0.0000    24.0000 </r>
       <r>     2.3210     0.0000    24.0000 </r>
       <r>     2.4438     0.0000    24.0000 </r>
       <r>     2.5665     0.0000    24.0000 </r>
       <r>     2.6893     0.0000    24.0000 </r>
       <r>     2.8120     0.0000    24.0000 </r>
      </set>
     </set>
    </array>
   </total>
  </dos>
 </calculation>
 <structure name="finalpos" >
  <crystal>
   <varray name="basis" >
    <v>      10.00000000       0.00000000       0.00000000 </v>
    <v>       0.00000000      10.00000000       0.00000000 </v>
    <v>       0.00000000       0.00000000      10.00000000 </v>
   </varray>
   <i name="volume">   1000.00000000 </i>
   <varray name="rec_basis" >
    <v>       0.10000000       0.00000000       0.00000000 </v>
    <v>       0.00000000       0.10000000       0.00000000 </v>
    <v>       0.00000000       0.00000000       0.10000000 </v>
   </varray>
  </crystal>
  <varray name="positions" >
   <v>       0.50000000       0.50000000       0.50000000 </v>
   <v>       0.50000001       0.50000000       0.61634621 </v>
   <v>       0.49999999       0.50000000       0.38165379 </v>
  </varray>
 </structure>
</modeling>
