 vasp.5.4.4.18Apr17-6-g9f103f2a35 (build Jan 25 2021 15:25:03) gamma-only       
  
 executed on                 TEST date 2022.05.30  17:33:21
 running on   32 total cores
 distrk:  each k-point on   32 cores,    1 groups
 distr:  one band on NCORES_PER_BAND=  16 cores,    2 groups


--------------------------------------------------------------------------------------------------------


 INCAR:
 POTCAR:    PAW_PBE C 08Apr2002                   
 POTCAR:    PAW_PBE O 08Apr2002                   

 ----------------------------------------------------------------------------- 
|                                                                             |
|           W    W    AA    RRRRR   N    N  II  N    N   GGGG   !!!           |
|           W    W   A  A   R    R  NN   N  II  NN   N  G    G  !!!           |
|           W    W  A    A  R    R  N N  N  II  N N  N  G       !!!           |
|           W WW W  AAAAAA  RRRRR   N  N N  II  N  N N  G  GGG   !            |
|           WW  WW  A    A  R   R   N   NN  II  N   NN  G    G                |
|           W    W  A    A  R    R  N    N  II  N    N   GGGG   !!!           |
|                                                                             |
|      For optimal performance we recommend to set                            |
|        NCORE= 4 - approx SQRT( number of cores)                             |
|      NCORE specifies how many cores store one orbital (NPAR=cpu/NCORE).     |
|      This setting can  greatly improve the performance of VASP for DFT.     |
|      The default,   NCORE=1            might be grossly inefficient         |
|      on modern multi-core architectures or massively parallel machines.     |
|      Do your own testing !!!!                                               |
|      Unfortunately you need to use the default for GW and RPA calculations. |
|      (for HF NCORE is supported but not extensively tested yet)             |
|                                                                             |
 ----------------------------------------------------------------------------- 

 POTCAR:    PAW_PBE C 08Apr2002                   
   VRHFIN =C: s2p2                                                              
   LEXCH  = PE                                                                  
   EATOM  =   147.1560 eV,   10.8157 Ry                                         
                                                                                
   TITEL  = PAW_PBE C 08Apr2002                                                 
   LULTRA =        F    use ultrasoft PP ?                                      
   IUNSCR =        1    unscreen: 0-lin 1-nonlin 2-no                           
   RPACOR =    1.200    partial core radius                                     
   POMASS =   12.011; ZVAL   =    4.000    mass and valenz                      
   RCORE  =    1.500    outmost cutoff radius                                   
   RWIGS  =    1.630; RWIGS  =    0.863    wigner-seitz radius (au A)           
   ENMAX  =  400.000; ENMIN  =  300.000 eV                                      
   ICORE  =        2    local potential                                         
   LCOR   =        T    correct aug charges                                     
   LPAW   =        T    paw PP                                                  
   EAUG   =  644.873                                                            
   DEXC   =    0.000                                                            
   RMAX   =    1.529    core radius for proj-oper                               
   RAUG   =    1.300    factor for augmentation sphere                          
   RDEP   =    1.501    radius for radial grids                                 
   RDEPT  =    1.300    core radius for aug-charge                              
                                                                                
   Atomic configuration                                                         
    4 entries                                                                   
     n  l   j            E        occ.                                          
     1  0  0.50      -273.3789   2.0000                                         
     2  0  0.50       -13.7508   2.0000                                         
     2  1  0.50        -5.2854   2.0000                                         
     3  2  1.50        -5.4423   0.0000                                         
   Description                                                                  
     l       E           TYP  RCUT    TYP  RCUT                                 
     0    -13.7508458     23  1.200                                             
     0     -8.2022199     23  1.200                                             
     1     -5.2854383     23  1.500                                             
     1     34.0145650     23  1.500                                             
     2     -5.4423304      7  1.500                                             
  local pseudopotential read in
  partial core-charges read in
  partial kinetic energy density read in
  atomic valenz-charges read in
  non local Contribution for L=           0  read in
    real space projection operators read in
  non local Contribution for L=           0  read in
    real space projection operators read in
  non local Contribution for L=           1  read in
    real space projection operators read in
  non local Contribution for L=           1  read in
    real space projection operators read in
    PAW grid and wavefunctions read in
 
   number of l-projection  operators is LMAX  =           4
   number of lm-projection operators is LMMAX =           8
 
 POTCAR:    PAW_PBE O 08Apr2002                   
   VRHFIN =O: s2p4                                                              
   LEXCH  = PE                                                                  
   EATOM  =   432.3788 eV,   31.7789 Ry                                         
                                                                                
   TITEL  = PAW_PBE O 08Apr2002                                                 
   LULTRA =        F    use ultrasoft PP ?                                      
   IUNSCR =        1    unscreen: 0-lin 1-nonlin 2-no                           
   RPACOR =    1.200    partial core radius                                     
   POMASS =   16.000; ZVAL   =    6.000    mass and valenz                      
   RCORE  =    1.520    outmost cutoff radius                                   
   RWIGS  =    1.550; RWIGS  =    0.820    wigner-seitz radius (au A)           
   ENMAX  =  400.000; ENMIN  =  300.000 eV                                      
   ICORE  =        2    local potential                                         
   LCOR   =        T    correct aug charges                                     
   LPAW   =        T    paw PP                                                  
   EAUG   =  605.392                                                            
   DEXC   =    0.000                                                            
   RMAX   =    1.553    core radius for proj-oper                               
   RAUG   =    1.300    factor for augmentation sphere                          
   RDEP   =    1.550    radius for radial grids                                 
   RDEPT  =    1.329    core radius for aug-charge                              
                                                                                
   Atomic configuration                                                         
    4 entries                                                                   
     n  l   j            E        occ.                                          
     1  0  0.50      -514.6923   2.0000                                         
     2  0  0.50       -23.9615   2.0000                                         
     2  1  0.50        -9.0305   4.0000                                         
     3  2  1.50        -9.5241   0.0000                                         
   Description                                                                  
     l       E           TYP  RCUT    TYP  RCUT                                 
     0    -23.9615318     23  1.200                                             
     0     -9.5240782     23  1.200                                             
     1     -9.0304911     23  1.520                                             
     1      8.1634956     23  1.520                                             
     2     -9.5240782      7  1.500                                             
  local pseudopotential read in
  partial core-charges read in
  partial kinetic energy density read in
  kinetic energy density of atom read in
  atomic valenz-charges read in
  non local Contribution for L=           0  read in
    real space projection operators read in
  non local Contribution for L=           0  read in
    real space projection operators read in
  non local Contribution for L=           1  read in
    real space projection operators read in
  non local Contribution for L=           1  read in
    real space projection operators read in
    PAW grid and wavefunctions read in
 
   number of l-projection  operators is LMAX  =           4
   number of lm-projection operators is LMMAX =           8
 
  PAW_PBE C 08Apr2002                   :
 energy of atom  1       EATOM= -147.1560
 kinetic energy error for atom=    0.0116 (will be added to EATOM!!)
  PAW_PBE O 08Apr2002                   :
 energy of atom  2       EATOM= -432.3788
 kinetic energy error for atom=    0.0389 (will be added to EATOM!!)
 
 
 POSCAR:  C  O                                   
  positions in direct lattice
  velocities in cartesian coordinates
 exchange correlation table for  LEXCH =        8
   RHO(1)=    0.500       N(1)  =     2000
   RHO(2)=  100.500       N(2)  =     4000
 


--------------------------------------------------------------------------------------------------------


 ion  position               nearest neighbor table
   1  0.500  0.500  0.500-   2 1.16   3 1.16
   2  0.500  0.500  0.616-   1 1.16
   3  0.500  0.500  0.384-   1 1.16
 

IMPORTANT INFORMATION: All symmetrisations will be switched off!
NOSYMM: (Re-)initialisation of all symmetry stuff for point group C_1.

 
 
 KPOINTS: KPOINTS created by Atomic Simulation Env

Automatic generation of k-mesh.
Space group operators:
 irot       det(A)        alpha          n_x          n_y          n_z        tau_x        tau_y        tau_z
    1     1.000000     0.000000     1.000000     0.000000     0.000000     0.000000     0.000000     0.000000
 
 Subroutine IBZKPT returns following result:
 ===========================================
 
 Found      1 irreducible k-points:
 
 Following reciprocal coordinates:
            Coordinates               Weight
  0.000000  0.000000  0.000000      1.000000
 
 Following cartesian coordinates:
            Coordinates               Weight
  0.000000  0.000000  0.000000      1.000000
 
 
 Subroutine IBZKPT_HF returns following result:
 ==============================================
 
 Found      1 k-points in 1st BZ
 the following      1 k-points will be used (e.g. in the exchange kernel)
 Following reciprocal coordinates:   # in IRBZ
  0.000000  0.000000  0.000000    1.00000000   1 t-inv F


--------------------------------------------------------------------------------------------------------




 Dimension of arrays:
   k-points           NKPTS =      1   k-points in BZ     NKDIM =      1   number of bands    NBANDS=     12
   number of dos      NEDOS =    301   number of ions     NIONS =      3
   non local maximal  LDIM  =      4   non local SUM 2l+1 LMDIM =      8
   total plane-waves  NPLWV = 343000
   max r-space proj   IRMAX =      1   max aug-charges    IRDMAX=  35796
   dimension x,y,z NGX =    70 NGY =   70 NGZ =   70
   dimension x,y,z NGXF=   140 NGYF=  140 NGZF=  140
   support grid    NGXF=   280 NGYF=  280 NGZF=  280
   ions per type =               1   2
   NGX,Y,Z   is equivalent  to a cutoff of  11.64, 11.64, 11.64 a.u.
   NGXF,Y,Z  is equivalent  to a cutoff of  23.27, 23.27, 23.27 a.u.

 SYSTEM =  unknown system                          
 POSCAR =   C  O                                   

 Startparameter for this run:
   NWRITE =      2    write-flag & timer
   PREC   = accura    normal or accurate (medium, high low for compatibility)
   ISTART =      0    job   : 0-new  1-cont  2-samecut
   ICHARG =      2    charge: 1-file 2-atom 10-const
   ISPIN  =      1    spin polarized calculation?
   LNONCOLLINEAR =      F non collinear calculations
   LSORBIT =      F    spin-orbit coupling
   INIWAV =      1    electr: 0-lowe 1-rand  2-diag
   LASPH  =      F    aspherical Exc in radial PAW
   METAGGA=      F    non-selfconsistent MetaGGA calc.

 Electronic Relaxation 1
   ENCUT  =  450.0 eV  33.07 Ry    5.75 a.u.  17.30 17.30 17.30*2*pi/ulx,y,z
   ENINI  =  450.0     initial cutoff
   ENAUG  =  644.9 eV  augmentation charge cutoff
   NELM   =    200;   NELMIN=  5; NELMDL= -5     # of ELM steps 
   EDIFF  = 0.1E-07   stopping-criterion for ELM
   LREAL  =      F    real-space projection
   NLSPLINE    = F    spline interpolate recip. space projectors
   LCOMPAT=      F    compatible to vasp.4.4
   GGA_COMPAT  = T    GGA compatible to vasp.4.4-vasp.4.6
   LMAXPAW     = -100 max onsite density
   LMAXMIX     =    2 max onsite mixed and CHGCAR
   VOSKOWN=      0    Vosko Wilk Nusair interpolation
   ROPT   =    0.00000   0.00000
 Ionic relaxation
   EDIFFG = -.1E-04   stopping-criterion for IOM
   NSW    =   1000    number of steps for IOM
   NBLOCK =      1;   KBLOCK =   1000    inner block; outer block 
   IBRION =      1    ionic relax: 0-MD 1-quasi-New 2-CG
   NFREE  =      0    steps in history (QN), initial steepest desc. (CG)
   ISIF   =      2    stress and relaxation
   IWAVPR =     11    prediction:  0-non 1-charg 2-wave 3-comb
   ISYM   =      0    0-nonsym 1-usesym 2-fastsym
   LCORR  =      T    Harris-Foulkes like correction to forces

   POTIM  = 0.0200    time-step for ionic-motion
   TEIN   =    0.0    initial temperature
   TEBEG  =    0.0;   TEEND  =   0.0 temperature during run
   SMASS  =  -3.00    Nose mass-parameter (am)
   estimated Nose-frequenzy (Omega)   =  0.10E-29 period in steps =****** mass=  -0.229E-26a.u.
   SCALEE = 1.0000    scale energy and forces
   NPACO  =    256;   APACO  = 16.0  distance and # of slots for P.C.
   PSTRESS=    0.0 pullay stress

  Mass of Ions in am
   POMASS =  12.01 16.00
  Ionic Valenz
   ZVAL   =   4.00  6.00
  Atomic Wigner-Seitz radii
   RWIGS  =  -1.00 -1.00
  virtual crystal weights 
   VCA    =   1.00  1.00
   NELECT =      16.0000    total number of electrons
   NUPDOWN=      -1.0000    fix difference up-down

 DOS related values:
   EMIN   =  10.00;   EMAX   =-10.00  energy-range for DOS
   EFERMI =   0.00
   ISMEAR =     1;   SIGMA  =   0.20  broadening in eV -4-tet -1-fermi 0-gaus

 Electronic relaxation 2 (details)
   IALGO  =     58    algorithm
   LDIAG  =      T    sub-space diagonalisation (order eigenvalues)
   LSUBROT=      F    optimize rotation matrix (better conditioning)
   TURBO    =      0    0=normal 1=particle mesh
   IRESTART =      0    0=no restart 2=restart with 2 vectors
   NREBOOT  =      0    no. of reboots
   NMIN     =      0    reboot dimension
   EREF     =   0.00    reference energy to select bands
   IMIX   =      4    mixing-type and parameters
     AMIX     =   0.40;   BMIX     =  1.00
     AMIX_MAG =   1.60;   BMIX_MAG =  1.00
     AMIN     =   0.10
     WC   =   100.;   INIMIX=   1;  MIXPRE=   1;  MAXMIX= -45

 Intra band minimization:
   WEIMIN = 0.0010     energy-eigenvalue tresh-hold
   EBREAK =  0.21E-09  absolut break condition
   DEPER  =   0.30     relativ break condition  

   TIME   =   0.40     timestep for ELM

  volume/ion in A,a.u.               =     333.33      2249.44
  Fermi-wavevector in a.u.,A,eV,Ry     =   0.412523  0.779555  2.315374  0.170175
  Thomas-Fermi vector in A             =   1.369550
 
 Write flags
   LWAVE        =      T    write WAVECAR
   LDOWNSAMPLE  =      F    k-point downsampling of WAVECAR
   LCHARG       =      T    write CHGCAR
   LVTOT        =      F    write LOCPOT, total local potential
   LVHAR        =      F    write LOCPOT, Hartree potential only
   LELF         =      F    write electronic localiz. function (ELF)
   LORBIT       =      0    0 simple, 1 ext, 2 COOP (PROOUT), +10 PAW based schemes


 Dipole corrections
   LMONO  =      F    monopole corrections only (constant potential shift)
   LDIPOL =      F    correct potential (dipole corrections)
   IDIPOL =      0    1-x, 2-y, 3-z, 4-all directions 
   EPSILON=  1.0000000 bulk dielectric constant

 Exchange correlation treatment:
   GGA     =    PE    GGA type
   LEXCH   =     8    internal setting for exchange type
   VOSKOWN=      0    Vosko Wilk Nusair interpolation
   EXXOEP  =     0    0=HF, 1=EXX-LHF (local Hartree Fock) 2=EXX OEP
   LHFCALC =     T    Hartree Fock is set to
   LSYMGRAD=     F    symmetrize gradient (conserves proper symmetry)
   PRECFOCK=normal    Normal, Fast or Accurate (Low or Medium for compatibility)
   LRHFCALC=     F    long range Hartree Fock
   LRSCOR  =     F    long range correlation only (use DFT for short range part)
   LTHOMAS =     F    Thomas Fermi screening in HF
   LMODELHF=     F    short range full HF, long range fraction AEXX
   ENCUT4O =  -1.0   cutoff for four orbital integrals eV
   LMAXFOCK=     4    L truncation for augmentation on plane wave grid
   LMAXFOCKAE=  -1    L truncation for all-electron charge restoration on plane wave grid
   NMAXFOCKAE=   1    number of basis functions for all-electron charge restoration
   LFOCKAEDFT=     F  apply the AE augmentation even for DFT
   NKREDX  =     1    reduce k-point grid by
   NKREDY  =     1    reduce k-point grid by
   NKREDZ  =     1    reduce k-point grid by
   SHIFTRED=     F    shift reduced grid of Gamma
   HFKIDENT=     F    idential grid for each k-point
   ODDONLY =     F    use only odd q-grid points
   EVENONLY=     F    use only even q-grid points
   HFALPHA =   -1.0000 decay constant for conv. correction
   MCALPHA =    0.0000 extent of test-charge in conv. correction in multipole expansion
   AEXX    =    0.2500 exact exchange contribution
   HFSCREEN=    0.2000 screening length (either q_TF or 0.3 A-1)
   HFSCREENC=   0.2000 screening length for correlation (either q_TF or 0.3 A-1)
   HFRCUT  =    0.0000 spherical cutoff for potential kernel
   ALDAX   =    0.7500 LDA exchange part
   AGGAX   =    0.7500 GGA exchange part
   ALDAC   =    1.0000 LDA correlation
   AGGAC   =    1.0000 GGA correlation
   ENCUTFOCK=  -1.0 apply spherical cutoff to Coloumb kernel
   NBANDSGWLOW=     1    first orbital included in HF term
   NBLOCK_FOCK=    64    blocking factor in FOCK_ACC
 Linear response parameters
   LEPSILON=     F    determine dielectric tensor
   LRPA    =     F    only Hartree local field effects (RPA)
   LNABLA  =     F    use nabla operator in PAW spheres
   LVEL    =     F    velocity operator in full k-point grid
   LINTERFAST=   F  fast interpolation
   KINTER  =     0    interpolate to denser k-point grid
   CSHIFT  =0.1000    complex shift for real part using Kramers Kronig
   OMEGAMAX=  -1.0    maximum frequency
   DEG_THRESHOLD= 0.2000000E-02 threshold for treating states as degnerate
   RTIME   =   -0.100 relaxation time in fs
  (WPLASMAI=    0.000 imaginary part of plasma frequency in eV, 0.658/RTIME)
   DFIELD  = 0.0000000 0.0000000 0.0000000 field for delta impulse in time
 
 Orbital magnetization related:
   ORBITALMAG=     F  switch on orbital magnetization
   LCHIMAG   =     F  perturbation theory with respect to B field
   DQ        =  0.001000  dq finite difference perturbation B field
   LLRAUG    =     F  two centre corrections for induced B field



--------------------------------------------------------------------------------------------------------


 quasi-Newton-method for relaxation of ions
 charge density and potential will be updated during run
 non-spin polarized calculation
 Conjugate gradient for all bands (Freysoldt, et al. PRB 79, 241103 (2009))
 preconditioned conjugated gradient                                        
 perform sub-space diagonalisation
    before iterative eigenvector-optimisation
 modified Broyden-mixing scheme, WC =      100.0
 initial mixing is a Kerker type mixing with AMIX =  0.4000 and BMIX =      1.0000
 Hartree-type preconditioning will be used
 using additional bands            4
 reciprocal scheme for non local part
 use partial core corrections
 no Harris-corrections to forces 
 use gradient corrections 
 use of overlap-Matrix (Vanderbilt PP)
 Methfessel and Paxton  Order N= 1 SIGMA  =   0.20


--------------------------------------------------------------------------------------------------------


  energy-cutoff  :      450.00
  volume of cell :     1000.00
      direct lattice vectors                 reciprocal lattice vectors
    10.000000000  0.000000000  0.000000000     0.100000000  0.000000000  0.000000000
     0.000000000 10.000000000  0.000000000     0.000000000  0.100000000  0.000000000
     0.000000000  0.000000000 10.000000000     0.000000000  0.000000000  0.100000000

  length of vectors
    10.000000000 10.000000000 10.000000000     0.100000000  0.100000000  0.100000000


 
 k-points in units of 2pi/SCALE and weight: KPOINTS created by Atomic Simulation Env
   0.00000000  0.00000000  0.00000000       1.000
 
 k-points in reciprocal lattice and weights: KPOINTS created by Atomic Simulation Env
   0.00000000  0.00000000  0.00000000       1.000
 
 position of ions in fractional coordinates (direct lattice) 
   0.50000000  0.50000001  0.50000000
   0.50000001  0.50000000  0.61634581
   0.49999999  0.49999999  0.38365419
 
 position of ions in cartesian coordinates  (Angst):
   5.00000005  5.00000007  5.00000000
   5.00000007  5.00000000  6.16345814
   4.99999988  4.99999993  3.83654186
 


--------------------------------------------------------------------------------------------------------


 use parallel FFT for orbitals z direction half grid
 k-point  1 :   0.0000 0.0000 0.0000  plane waves:   10912

 maximum and minimum number of plane-waves per node :       694      673

 maximum number of plane-waves:     10912
 maximum index in each direction: 
   IXMAX=   17   IYMAX=   17   IZMAX=   17
   IXMIN=  -17   IYMIN=  -17   IZMIN=    0


 parallel 3D FFT for wavefunctions:
    minimum data exchange during FFTs selected (reduces bandwidth)
 parallel 3D FFT for charge:
    minimum data exchange during FFTs selected (reduces bandwidth)


 FFT grid for exact exchange (Hartree Fock) 
  NGX = 54; NGY = 54; NGZ = 54

 use parallel FFT for orbitals z direction half grid
 
 Radii for the augmentation spheres in the non-local exchange
 for species   1 augmentation radius   0.874 (default was   0.699)
       energy cutoff for augmentation   1800.0
 for species   2 augmentation radius   0.902 (default was   0.722)
       energy cutoff for augmentation   1800.0

 real space projection operators:
  total allocation   :         99.63 KBytes
  max/ min on nodes  :         15.54          0.00

 Maximum index for augmentation-charges in exchange            0
  SETUP_FOCK is finished

 total amount of memory used by VASP MPI-rank0    50742. kBytes
=======================================================================

   base      :      30000. kBytes
   nonl-proj :        118. kBytes
   fftplans  :      13895. kBytes
   grid      :       6529. kBytes
   one-center:          1. kBytes
   HF        :          4. kBytes
   nonlr-proj:          0. kBytes
   wavefun   :        195. kBytes
 
     INWAV:  cpu time    0.0000: real time    0.0000
 Broyden mixing: mesh for mixing (old mesh)
   NGX = 35   NGY = 35   NGZ = 35
  (NGX  =140   NGY  =140   NGZ  =140)
  gives a total of  42875 points

 initial charge density was supplied:
 charge density of overlapping atoms calculated
 number of electron      16.0000000 magnetization 
 keeping initial charge density in first step


--------------------------------------------------------------------------------------------------------


 Maximum index for augmentation-charges          858 (set IRDMAX)


--------------------------------------------------------------------------------------------------------


 First call to EWALD:  gamma=   0.177
 Maximum number of real-space cells 3x 3x 3
 Maximum number of reciprocal cells 3x 3x 3

    FEWALD:  cpu time    0.0017: real time    0.0021


--------------------------------------- Iteration      1(   1)  ---------------------------------------


    POTLOK:  cpu time    0.2414: real time    0.2440
    SETDIJ:  cpu time    0.1344: real time    0.1359
    TRIAL :  cpu time    0.0569: real time    0.1137
    CORREC:  cpu time    0.0001: real time    0.0002
    --------------------------------------------
      LOOP:  cpu time    0.4337: real time    0.4963

 eigenvalue-minimisations  :    40
 total energy-change (2. order) : 0.1308013E+03  (-0.4435401E+03)
 number of electron      16.0000000 magnetization 
 augmentation part       16.0000000 magnetization 

 Free energy of the ion-electron system (eV)
  ---------------------------------------------------
  alpha Z        PSCENC =         1.06967730
  Ewald energy   TEWEN  =       302.25636593
  -Hartree energ DENC   =     -1110.94266434
  -exchange      EXHF   =         0.00000000
  -V(xc)+E(xc)   XCENC  =        51.89911958
  PAW double counting   =       816.18928923     -818.61689718
  entropy T*S    EENTRO =         0.01219788
  eigenvalues    EBANDS =      -115.31814439
  atomic energy  EATOM  =      1004.25233184
  ---------------------------------------------------
  free energy    TOTEN  =       130.80127584 eV

  energy without entropy =      130.78907796  energy(sigma->0) =      130.79720988
  exchange ACFDT corr.  =         0.00000000  see jH, gK, PRB 81, 115126


--------------------------------------------------------------------------------------------------------




--------------------------------------- Iteration      1(   2)  ---------------------------------------


    TRIAL :  cpu time    0.0274: real time    0.0274
    CORREC:  cpu time    0.0001: real time    0.0001
    --------------------------------------------
      LOOP:  cpu time    0.0294: real time    0.0310

 eigenvalue-minimisations  :    48
 total energy-change (2. order) :-0.9330704E+02  (-0.9188764E+02)
 number of electron      16.0000000 magnetization 
 augmentation part       16.0000000 magnetization 

 Free energy of the ion-electron system (eV)
  ---------------------------------------------------
  alpha Z        PSCENC =         1.06967730
  Ewald energy   TEWEN  =       302.25636593
  -Hartree energ DENC   =     -1110.94266434
  -exchange      EXHF   =         0.00000000
  -V(xc)+E(xc)   XCENC  =        51.89911958
  PAW double counting   =       816.18928923     -818.61689718
  entropy T*S    EENTRO =         0.01159581
  eigenvalues    EBANDS =      -208.62458646
  atomic energy  EATOM  =      1004.25233184
  ---------------------------------------------------
  free energy    TOTEN  =        37.49423171 eV

  energy without entropy =       37.48263589  energy(sigma->0) =       37.49036644
  exchange ACFDT corr.  =         0.00000000  see jH, gK, PRB 81, 115126


--------------------------------------------------------------------------------------------------------




--------------------------------------- Iteration      1(   3)  ---------------------------------------


    TRIAL :  cpu time    0.0214: real time    0.0214
    CORREC:  cpu time    0.0001: real time    0.0001
    --------------------------------------------
      LOOP:  cpu time    0.0218: real time    0.0249

 eigenvalue-minimisations  :    36
 total energy-change (2. order) :-0.1990727E+02  (-0.1987098E+02)
 number of electron      16.0000000 magnetization 
 augmentation part       16.0000000 magnetization 

 Free energy of the ion-electron system (eV)
  ---------------------------------------------------
  alpha Z        PSCENC =         1.06967730
  Ewald energy   TEWEN  =       302.25636593
  -Hartree energ DENC   =     -1110.94266434
  -exchange      EXHF   =         0.00000000
  -V(xc)+E(xc)   XCENC  =        51.89911958
  PAW double counting   =       816.18928923     -818.61689718
  entropy T*S    EENTRO =         0.02370808
  eigenvalues    EBANDS =      -228.54396592
  atomic energy  EATOM  =      1004.25233184
  ---------------------------------------------------
  free energy    TOTEN  =        17.58696450 eV

  energy without entropy =       17.56325643  energy(sigma->0) =       17.57906181
  exchange ACFDT corr.  =         0.00000000  see jH, gK, PRB 81, 115126


--------------------------------------------------------------------------------------------------------




--------------------------------------- Iteration      1(   4)  ---------------------------------------


    TRIAL :  cpu time    0.0177: real time    0.0177
    CORREC:  cpu time    0.0001: real time    0.0001
    --------------------------------------------
      LOOP:  cpu time    0.0181: real time    0.0211

 eigenvalue-minimisations  :    28
 total energy-change (2. order) :-0.4918762E+00  (-0.4913535E+00)
 number of electron      16.0000000 magnetization 
 augmentation part       16.0000000 magnetization 

 Free energy of the ion-electron system (eV)
  ---------------------------------------------------
  alpha Z        PSCENC =         1.06967730
  Ewald energy   TEWEN  =       302.25636593
  -Hartree energ DENC   =     -1110.94266434
  -exchange      EXHF   =         0.00000000
  -V(xc)+E(xc)   XCENC  =        51.89911958
  PAW double counting   =       816.18928923     -818.61689718
  entropy T*S    EENTRO =         0.02319186
  eigenvalues    EBANDS =      -229.03532595
  atomic energy  EATOM  =      1004.25233184
  ---------------------------------------------------
  free energy    TOTEN  =        17.09508826 eV

  energy without entropy =       17.07189640  energy(sigma->0) =       17.08735764
  exchange ACFDT corr.  =         0.00000000  see jH, gK, PRB 81, 115126


--------------------------------------------------------------------------------------------------------




--------------------------------------- Iteration      1(   5)  ---------------------------------------


    TRIAL :  cpu time    0.0189: real time    0.0189
    CORREC:  cpu time    0.0001: real time    0.0001
    CHARGE:  cpu time    0.0416: real time    0.0449
    --------------------------------------------
      LOOP:  cpu time    0.0609: real time    0.0671

 eigenvalue-minimisations  :    32
 total energy-change (2. order) :-0.7193911E-02  (-0.7193205E-02)
 number of electron      16.0000000 magnetization 
 augmentation part        1.3531160 magnetization 

 Free energy of the ion-electron system (eV)
  ---------------------------------------------------
  alpha Z        PSCENC =         1.06967730
  Ewald energy   TEWEN  =       302.25636593
  -Hartree energ DENC   =     -1110.94266434
  -exchange      EXHF   =         0.00000000
  -V(xc)+E(xc)   XCENC  =        51.89911958
  PAW double counting   =       816.18928923     -818.61689718
  entropy T*S    EENTRO =         0.02319162
  eigenvalues    EBANDS =      -229.04251963
  atomic energy  EATOM  =      1004.25233184
  ---------------------------------------------------
  free energy    TOTEN  =        17.08789435 eV

  energy without entropy =       17.06470272  energy(sigma->0) =       17.08016381
  exchange ACFDT corr.  =         0.00000000  see jH, gK, PRB 81, 115126


--------------------------------------------------------------------------------------------------------




--------------------------------------- Iteration      1(   6)  ---------------------------------------


    POTLOK:  cpu time    0.2564: real time    0.2564
    SETDIJ:  cpu time    0.1300: real time    0.1300
    TRIAL :  cpu time    0.0531: real time    0.0667
    CORREC:  cpu time    0.4646: real time    0.4675
    CHARGE:  cpu time    0.0385: real time    0.0385
    --------------------------------------------
      LOOP:  cpu time    0.9433: real time    0.9625

 eigenvalue-minimisations  :     0
 total energy-change (2. order) :-0.4512178E+02  (-0.2649044E+00)
 number of electron      16.0000000 magnetization 
 augmentation part        1.3690272 magnetization 

 Free energy of the ion-electron system (eV)
  ---------------------------------------------------
  alpha Z        PSCENC =         1.06967730
  Ewald energy   TEWEN  =       302.25636593
  -Hartree energ DENC   =     -1133.78271476
  -exchange      EXHF   =        46.11769336
  -V(xc)+E(xc)   XCENC  =        53.00668158
  PAW double counting   =      1659.31044583    -1662.02453518
  entropy T*S    EENTRO =         0.02319162
  eigenvalues    EBANDS =      -298.26302207
  atomic energy  EATOM  =      1004.25233184
  ---------------------------------------------------
  free energy    TOTEN  =       -28.03388456 eV

  energy without entropy =      -28.05707618  energy(sigma->0) =      -28.04161510
  exchange ACFDT corr.  =         0.00000522  see jH, gK, PRB 81, 115126


--------------------------------------------------------------------------------------------------------




--------------------------------------- Iteration      1(   7)  ---------------------------------------


    POTLOK:  cpu time    0.2596: real time    0.2596
    SETDIJ:  cpu time    0.1294: real time    0.1296
    TRIAL :  cpu time    0.0386: real time    0.0386
    CORREC:  cpu time    0.4588: real time    0.4589
    CHARGE:  cpu time    0.0385: real time    0.0385
    --------------------------------------------
      LOOP:  cpu time    0.9255: real time    0.9291

 eigenvalue-minimisations  :     0
 total energy-change (2. order) :-0.2632257E+00  (-0.5610040E-01)
 number of electron      16.0000000 magnetization 
 augmentation part        1.3556383 magnetization 

 Free energy of the ion-electron system (eV)
  ---------------------------------------------------
  alpha Z        PSCENC =         1.06967730
  Ewald energy   TEWEN  =       302.25636593
  -Hartree energ DENC   =     -1152.17858891
  -exchange      EXHF   =        46.80717657
  -V(xc)+E(xc)   XCENC  =        53.66601506
  PAW double counting   =      1679.26670547    -1681.96967644
  entropy T*S    EENTRO =         0.02319163
  eigenvalues    EBANDS =      -281.49030870
  atomic energy  EATOM  =      1004.25233184
  ---------------------------------------------------
  free energy    TOTEN  =       -28.29711026 eV

  energy without entropy =      -28.32030190  energy(sigma->0) =      -28.30484081
  exchange ACFDT corr.  =         0.00000990  see jH, gK, PRB 81, 115126


--------------------------------------------------------------------------------------------------------




--------------------------------------- Iteration      1(   8)  ---------------------------------------


    POTLOK:  cpu time    0.2582: real time    0.2582
    SETDIJ:  cpu time    0.1295: real time    0.1297
    TRIAL :  cpu time    0.0386: real time    0.0386
    CORREC:  cpu time    0.4571: real time    0.4571
    CHARGE:  cpu time    0.0385: real time    0.0385
    --------------------------------------------
      LOOP:  cpu time    0.9225: real time    0.9262

 eigenvalue-minimisations  :     0
 total energy-change (2. order) :-0.5609784E-01  (-0.1670251E-01)
 number of electron      16.0000000 magnetization 
 augmentation part        1.3418875 magnetization 

 Free energy of the ion-electron system (eV)
  ---------------------------------------------------
  alpha Z        PSCENC =         1.06967730
  Ewald energy   TEWEN  =       302.25636593
  -Hartree energ DENC   =     -1151.91746652
  -exchange      EXHF   =        46.73938126
  -V(xc)+E(xc)   XCENC  =        53.60258753
  PAW double counting   =      1678.08445190    -1680.73186795
  entropy T*S    EENTRO =         0.02319165
  eigenvalues    EBANDS =      -281.73186102
  atomic energy  EATOM  =      1004.25233184
  ---------------------------------------------------
  free energy    TOTEN  =       -28.35320811 eV

  energy without entropy =      -28.37639975  energy(sigma->0) =      -28.36093865
  exchange ACFDT corr.  =         0.00001848  see jH, gK, PRB 81, 115126


--------------------------------------------------------------------------------------------------------




--------------------------------------- Iteration      1(   9)  ---------------------------------------


    POTLOK:  cpu time    0.2565: real time    0.2565
    SETDIJ:  cpu time    0.1294: real time    0.1296
    TRIAL :  cpu time    0.0386: real time    0.0386
    CORREC:  cpu time    0.4569: real time    0.4569
    CHARGE:  cpu time    0.0385: real time    0.0385
    --------------------------------------------
      LOOP:  cpu time    0.9204: real time    0.9244

 eigenvalue-minimisations  :     0
 total energy-change (2. order) :-0.1670444E-01  (-0.5269959E-02)
 number of electron      16.0000000 magnetization 
 augmentation part        1.3386888 magnetization 

 Free energy of the ion-electron system (eV)
  ---------------------------------------------------
  alpha Z        PSCENC =         1.06967730
  Ewald energy   TEWEN  =       302.25636593
  -Hartree energ DENC   =     -1150.98598651
  -exchange      EXHF   =        46.69255941
  -V(xc)+E(xc)   XCENC  =        53.54864204
  PAW double counting   =      1674.01835474    -1676.59758205
  entropy T*S    EENTRO =         0.02319167
  eigenvalues    EBANDS =      -282.64746690
  atomic energy  EATOM  =      1004.25233184
  ---------------------------------------------------
  free energy    TOTEN  =       -28.36991254 eV

  energy without entropy =      -28.39310421  energy(sigma->0) =      -28.37764310
  exchange ACFDT corr.  =         0.00002701  see jH, gK, PRB 81, 115126


--------------------------------------------------------------------------------------------------------




--------------------------------------- Iteration      1(  10)  ---------------------------------------


    POTLOK:  cpu time    0.2561: real time    0.2561
    SETDIJ:  cpu time    0.1293: real time    0.1296
    TRIAL :  cpu time    0.0385: real time    0.0385
    CORREC:  cpu time    0.4563: real time    0.4563
    CHARGE:  cpu time    0.0385: real time    0.0385
    --------------------------------------------
      LOOP:  cpu time    0.9193: real time    0.9227

 eigenvalue-minimisations  :     0
 total energy-change (2. order) :-0.5272781E-02  (-0.2334637E-02)
 number of electron      16.0000000 magnetization 
 augmentation part        1.3381989 magnetization 

 Free energy of the ion-electron system (eV)
  ---------------------------------------------------
  alpha Z        PSCENC =         1.06967730
  Ewald energy   TEWEN  =       302.25636593
  -Hartree energ DENC   =     -1151.97065826
  -exchange      EXHF   =        46.74322620
  -V(xc)+E(xc)   XCENC  =        53.58841252
  PAW double counting   =      1672.91424851    -1675.46125559
  entropy T*S    EENTRO =         0.02319170
  eigenvalues    EBANDS =      -281.79072544
  atomic energy  EATOM  =      1004.25233184
  ---------------------------------------------------
  free energy    TOTEN  =       -28.37518532 eV

  energy without entropy =      -28.39837703  energy(sigma->0) =      -28.38291589
  exchange ACFDT corr.  =         0.00003719  see jH, gK, PRB 81, 115126


--------------------------------------------------------------------------------------------------------




--------------------------------------- Iteration      1(  11)  ---------------------------------------


    POTLOK:  cpu time    0.2556: real time    0.2558
    SETDIJ:  cpu time    0.1296: real time    0.1296
    TRIAL :  cpu time    0.0384: real time    0.0385
    CORREC:  cpu time    0.4556: real time    0.4556
    CHARGE:  cpu time    0.0385: real time    0.0385
    --------------------------------------------
      LOOP:  cpu time    0.9211: real time    0.9219

 eigenvalue-minimisations  :     0
 total energy-change (2. order) :-0.2335650E-02  (-0.9915482E-03)
 number of electron      16.0000000 magnetization 
 augmentation part        1.3381552 magnetization 

 Free energy of the ion-electron system (eV)
  ---------------------------------------------------
  alpha Z        PSCENC =         1.06967730
  Ewald energy   TEWEN  =       302.25636593
  -Hartree energ DENC   =     -1151.89233733
  -exchange      EXHF   =        46.74505438
  -V(xc)+E(xc)   XCENC  =        53.58722606
  PAW double counting   =      1671.95070490    -1674.48920922
  entropy T*S    EENTRO =         0.02319175
  eigenvalues    EBANDS =      -281.88052654
  atomic energy  EATOM  =      1004.25233184
  ---------------------------------------------------
  free energy    TOTEN  =       -28.37752097 eV

  energy without entropy =      -28.40071272  energy(sigma->0) =      -28.38525156
  exchange ACFDT corr.  =         0.00004814  see jH, gK, PRB 81, 115126


--------------------------------------------------------------------------------------------------------




--------------------------------------- Iteration      1(  12)  ---------------------------------------


    POTLOK:  cpu time    0.2547: real time    0.2548
    SETDIJ:  cpu time    0.1296: real time    0.1296
    TRIAL :  cpu time    0.0384: real time    0.0384
    CORREC:  cpu time    0.4553: real time    0.4553
    CHARGE:  cpu time    0.0385: real time    0.0385
    --------------------------------------------
      LOOP:  cpu time    0.9170: real time    0.9205

 eigenvalue-minimisations  :     0
 total energy-change (2. order) :-0.9924522E-03  (-0.3467904E-03)
 number of electron      16.0000000 magnetization 
 augmentation part        1.3383895 magnetization 

 Free energy of the ion-electron system (eV)
  ---------------------------------------------------
  alpha Z        PSCENC =         1.06967730
  Ewald energy   TEWEN  =       302.25636593
  -Hartree energ DENC   =     -1151.91399131
  -exchange      EXHF   =        46.74655697
  -V(xc)+E(xc)   XCENC  =        53.58860353
  PAW double counting   =      1671.51585796    -1674.05215414
  entropy T*S    EENTRO =         0.02319180
  eigenvalues    EBANDS =      -281.86495325
  atomic energy  EATOM  =      1004.25233184
  ---------------------------------------------------
  free energy    TOTEN  =       -28.37851343 eV

  energy without entropy =      -28.40170522  energy(sigma->0) =      -28.38624403
  exchange ACFDT corr.  =         0.00005972  see jH, gK, PRB 81, 115126


--------------------------------------------------------------------------------------------------------




--------------------------------------- Iteration      1(  13)  ---------------------------------------


    POTLOK:  cpu time    0.2546: real time    0.2549
    SETDIJ:  cpu time    0.1297: real time    0.1297
    TRIAL :  cpu time    0.0385: real time    0.0385
    CORREC:  cpu time    0.4553: real time    0.4553
    CHARGE:  cpu time    0.0385: real time    0.0385
    --------------------------------------------
      LOOP:  cpu time    0.9172: real time    0.9208

 eigenvalue-minimisations  :     0
 total energy-change (2. order) :-0.3470024E-03  (-0.1075955E-03)
 number of electron      16.0000000 magnetization 
 augmentation part        1.3383090 magnetization 

 Free energy of the ion-electron system (eV)
  ---------------------------------------------------
  alpha Z        PSCENC =         1.06967730
  Ewald energy   TEWEN  =       302.25636593
  -Hartree energ DENC   =     -1152.12059714
  -exchange      EXHF   =        46.75417800
  -V(xc)+E(xc)   XCENC  =        53.59659898
  PAW double counting   =      1671.64775093    -1674.18462605
  entropy T*S    EENTRO =         0.02319185
  eigenvalues    EBANDS =      -281.67373201
  atomic energy  EATOM  =      1004.25233184
  ---------------------------------------------------
  free energy    TOTEN  =       -28.37886043 eV

  energy without entropy =      -28.40205228  energy(sigma->0) =      -28.38659104
  exchange ACFDT corr.  =         0.00007131  see jH, gK, PRB 81, 115126


--------------------------------------------------------------------------------------------------------




--------------------------------------- Iteration      1(  14)  ---------------------------------------


    POTLOK:  cpu time    0.2546: real time    0.2548
    SETDIJ:  cpu time    0.1296: real time    0.1296
    TRIAL :  cpu time    0.0385: real time    0.0385
    CORREC:  cpu time    0.4551: real time    0.4551
    CHARGE:  cpu time    0.0384: real time    0.0384
    --------------------------------------------
      LOOP:  cpu time    0.9167: real time    0.9198

 eigenvalue-minimisations  :     0
 total energy-change (2. order) :-0.1075911E-03  (-0.3231913E-04)
 number of electron      16.0000000 magnetization 
 augmentation part        1.3383623 magnetization 

 Free energy of the ion-electron system (eV)
  ---------------------------------------------------
  alpha Z        PSCENC =         1.06967730
  Ewald energy   TEWEN  =       302.25636593
  -Hartree energ DENC   =     -1152.03468402
  -exchange      EXHF   =        46.75005095
  -V(xc)+E(xc)   XCENC  =        53.59316363
  PAW double counting   =      1671.61479071    -1674.15265523
  entropy T*S    EENTRO =         0.02319192
  eigenvalues    EBANDS =      -281.75120098
  atomic energy  EATOM  =      1004.25233184
  ---------------------------------------------------
  free energy    TOTEN  =       -28.37896802 eV

  energy without entropy =      -28.40215993  energy(sigma->0) =      -28.38669866
  exchange ACFDT corr.  =         0.00008126  see jH, gK, PRB 81, 115126


--------------------------------------------------------------------------------------------------------




--------------------------------------- Iteration      1(  15)  ---------------------------------------


    POTLOK:  cpu time    0.2544: real time    0.2546
    SETDIJ:  cpu time    0.1298: real time    0.1298
    TRIAL :  cpu time    0.0384: real time    0.0384
    CORREC:  cpu time    0.4547: real time    0.4547
    CHARGE:  cpu time    0.0385: real time    0.0385
    --------------------------------------------
      LOOP:  cpu time    0.9163: real time    0.9197

 eigenvalue-minimisations  :     0
 total energy-change (2. order) :-0.3231924E-04  (-0.9342879E-05)
 number of electron      16.0000000 magnetization 
 augmentation part        1.3384006 magnetization 

 Free energy of the ion-electron system (eV)
  ---------------------------------------------------
  alpha Z        PSCENC =         1.06967730
  Ewald energy   TEWEN  =       302.25636593
  -Hartree energ DENC   =     -1152.06288277
  -exchange      EXHF   =        46.75110698
  -V(xc)+E(xc)   XCENC  =        53.59427664
  PAW double counting   =      1671.74263807    -1674.28125015
  entropy T*S    EENTRO =         0.02319200
  eigenvalues    EBANDS =      -281.72445609
  atomic energy  EATOM  =      1004.25233184
  ---------------------------------------------------
  free energy    TOTEN  =       -28.37900034 eV

  energy without entropy =      -28.40219234  energy(sigma->0) =      -28.38673100
  exchange ACFDT corr.  =         0.00009214  see jH, gK, PRB 81, 115126


--------------------------------------------------------------------------------------------------------




--------------------------------------- Iteration      1(  16)  ---------------------------------------


    POTLOK:  cpu time    0.2542: real time    0.2544
    SETDIJ:  cpu time    0.1297: real time    0.1297
    TRIAL :  cpu time    0.0384: real time    0.0384
    CORREC:  cpu time    0.4551: real time    0.4551
    CHARGE:  cpu time    0.0386: real time    0.0386
    --------------------------------------------
      LOOP:  cpu time    0.9166: real time    0.9199

 eigenvalue-minimisations  :     0
 total energy-change (2. order) :-0.9329467E-05  (-0.2956381E-05)
 number of electron      16.0000000 magnetization 
 augmentation part        1.3383766 magnetization 

 Free energy of the ion-electron system (eV)
  ---------------------------------------------------
  alpha Z        PSCENC =         1.06967730
  Ewald energy   TEWEN  =       302.25636593
  -Hartree energ DENC   =     -1152.09110276
  -exchange      EXHF   =        46.75225331
  -V(xc)+E(xc)   XCENC  =        53.59536028
  PAW double counting   =      1671.84853626    -1674.38749997
  entropy T*S    EENTRO =         0.02319209
  eigenvalues    EBANDS =      -281.69812386
  atomic energy  EATOM  =      1004.25233184
  ---------------------------------------------------
  free energy    TOTEN  =       -28.37900967 eV

  energy without entropy =      -28.40220176  energy(sigma->0) =      -28.38674036
  exchange ACFDT corr.  =         0.00010430  see jH, gK, PRB 81, 115126


--------------------------------------------------------------------------------------------------------




--------------------------------------- Iteration      1(  17)  ---------------------------------------


    POTLOK:  cpu time    0.2544: real time    0.2546
    SETDIJ:  cpu time    0.1297: real time    0.1297
    TRIAL :  cpu time    0.0384: real time    0.0384
    CORREC:  cpu time    0.4548: real time    0.4548
    CHARGE:  cpu time    0.0385: real time    0.0385
    --------------------------------------------
      LOOP:  cpu time    0.9165: real time    0.9196

 eigenvalue-minimisations  :     0
 total energy-change (2. order) :-0.2957576E-05  (-0.1124555E-05)
 number of electron      16.0000000 magnetization 
 augmentation part        1.3383787 magnetization 

 Free energy of the ion-electron system (eV)
  ---------------------------------------------------
  alpha Z        PSCENC =         1.06967730
  Ewald energy   TEWEN  =       302.25636593
  -Hartree energ DENC   =     -1152.07615231
  -exchange      EXHF   =        46.75166801
  -V(xc)+E(xc)   XCENC  =        53.59476171
  PAW double counting   =      1671.87556000    -1674.41465754
  entropy T*S    EENTRO =         0.02319222
  eigenvalues    EBANDS =      -281.71175965
  atomic energy  EATOM  =      1004.25233184
  ---------------------------------------------------
  free energy    TOTEN  =       -28.37901263 eV

  energy without entropy =      -28.40220484  energy(sigma->0) =      -28.38674336
  exchange ACFDT corr.  =         0.00011665  see jH, gK, PRB 81, 115126


--------------------------------------------------------------------------------------------------------




--------------------------------------- Iteration      1(  18)  ---------------------------------------


    POTLOK:  cpu time    0.2546: real time    0.2548
    SETDIJ:  cpu time    0.1297: real time    0.1297
    TRIAL :  cpu time    0.0384: real time    0.0384
    CORREC:  cpu time    0.4554: real time    0.4554
    CHARGE:  cpu time    0.0385: real time    0.0385
    --------------------------------------------
      LOOP:  cpu time    0.9179: real time    0.9207

 eigenvalue-minimisations  :     0
 total energy-change (2. order) :-0.1123378E-05  (-0.4867387E-06)
 number of electron      16.0000000 magnetization 
 augmentation part        1.3383826 magnetization 

 Free energy of the ion-electron system (eV)
  ---------------------------------------------------
  alpha Z        PSCENC =         1.06967730
  Ewald energy   TEWEN  =       302.25636593
  -Hartree energ DENC   =     -1152.07948579
  -exchange      EXHF   =        46.75186183
  -V(xc)+E(xc)   XCENC  =        53.59489217
  PAW double counting   =      1671.90505656    -1674.44420732
  entropy T*S    EENTRO =         0.02319239
  eigenvalues    EBANDS =      -281.70869849
  atomic energy  EATOM  =      1004.25233184
  ---------------------------------------------------
  free energy    TOTEN  =       -28.37901375 eV

  energy without entropy =      -28.40220614  energy(sigma->0) =      -28.38674454
  exchange ACFDT corr.  =         0.00013152  see jH, gK, PRB 81, 115126


--------------------------------------------------------------------------------------------------------




--------------------------------------- Iteration      1(  19)  ---------------------------------------


    POTLOK:  cpu time    0.2544: real time    0.2546
    SETDIJ:  cpu time    0.1295: real time    0.1295
    TRIAL :  cpu time    0.0383: real time    0.0383
    CORREC:  cpu time    0.4547: real time    0.4547
    CHARGE:  cpu time    0.0385: real time    0.0385
    --------------------------------------------
      LOOP:  cpu time    0.9161: real time    0.9191

 eigenvalue-minimisations  :     0
 total energy-change (2. order) :-0.4833214E-06  (-0.2725730E-06)
 number of electron      16.0000000 magnetization 
 augmentation part        1.3383779 magnetization 

 Free energy of the ion-electron system (eV)
  ---------------------------------------------------
  alpha Z        PSCENC =         1.06967730
  Ewald energy   TEWEN  =       302.25636593
  -Hartree energ DENC   =     -1152.08425947
  -exchange      EXHF   =        46.75211055
  -V(xc)+E(xc)   XCENC  =        53.59508622
  PAW double counting   =      1671.92101710    -1674.46017701
  entropy T*S    EENTRO =         0.02319266
  eigenvalues    EBANDS =      -281.70435909
  atomic energy  EATOM  =      1004.25233184
  ---------------------------------------------------
  free energy    TOTEN  =       -28.37901423 eV

  energy without entropy =      -28.40220689  energy(sigma->0) =      -28.38674512
  exchange ACFDT corr.  =         0.00014937  see jH, gK, PRB 81, 115126


--------------------------------------------------------------------------------------------------------




--------------------------------------- Iteration      1(  20)  ---------------------------------------


    POTLOK:  cpu time    0.2543: real time    0.2545
    SETDIJ:  cpu time    0.1297: real time    0.1297
    TRIAL :  cpu time    0.0384: real time    0.0384
    CORREC:  cpu time    0.4549: real time    0.4549
    CHARGE:  cpu time    0.0385: real time    0.0385
    --------------------------------------------
      LOOP:  cpu time    0.9163: real time    0.9197

 eigenvalue-minimisations  :     0
 total energy-change (2. order) :-0.2714496E-06  (-0.1942031E-06)
 number of electron      16.0000000 magnetization 
 augmentation part        1.3383807 magnetization 

 Free energy of the ion-electron system (eV)
  ---------------------------------------------------
  alpha Z        PSCENC =         1.06967730
  Ewald energy   TEWEN  =       302.25636593
  -Hartree energ DENC   =     -1152.08210121
  -exchange      EXHF   =        46.75206658
  -V(xc)+E(xc)   XCENC  =        53.59501009
  PAW double counting   =      1671.92065060    -1674.45980651
  entropy T*S    EENTRO =         0.02319313
  eigenvalues    EBANDS =      -281.70640178
  atomic energy  EATOM  =      1004.25233184
  ---------------------------------------------------
  free energy    TOTEN  =       -28.37901450 eV

  energy without entropy =      -28.40220763  energy(sigma->0) =      -28.38674555
  exchange ACFDT corr.  =         0.00017405  see jH, gK, PRB 81, 115126


--------------------------------------------------------------------------------------------------------




--------------------------------------- Iteration      1(  21)  ---------------------------------------


    POTLOK:  cpu time    0.2542: real time    0.2545
    SETDIJ:  cpu time    0.1296: real time    0.1296
    TRIAL :  cpu time    0.0383: real time    0.0383
    CORREC:  cpu time    0.4551: real time    0.4552
    CHARGE:  cpu time    0.0384: real time    0.0384
    --------------------------------------------
      LOOP:  cpu time    0.9163: real time    0.9196

 eigenvalue-minimisations  :     0
 total energy-change (2. order) :-0.1998491E-06  (-0.6412315E-06)
 number of electron      16.0000000 magnetization 
 augmentation part        1.3383967 magnetization 

 Free energy of the ion-electron system (eV)
  ---------------------------------------------------
  alpha Z        PSCENC =         1.06967730
  Ewald energy   TEWEN  =       302.25636593
  -Hartree energ DENC   =     -1152.08126200
  -exchange      EXHF   =        46.75206251
  -V(xc)+E(xc)   XCENC  =        53.59498232
  PAW double counting   =      1671.91762871    -1674.45680851
  entropy T*S    EENTRO =         0.02319669
  eigenvalues    EBANDS =      -281.70718593
  atomic energy  EATOM  =      1004.25233184
  ---------------------------------------------------
  free energy    TOTEN  =       -28.37901470 eV

  energy without entropy =      -28.40221140  energy(sigma->0) =      -28.38674693
  exchange ACFDT corr.  =         0.00021098  see jH, gK, PRB 81, 115126


--------------------------------------------------------------------------------------------------------




--------------------------------------- Iteration      1(  22)  ---------------------------------------


    POTLOK:  cpu time    0.2544: real time    0.2546
    SETDIJ:  cpu time    0.1294: real time    0.1294
    TRIAL :  cpu time    0.0385: real time    0.0385
    CORREC:  cpu time    0.4537: real time    0.4537
    CHARGE:  cpu time    0.0384: real time    0.0384
    --------------------------------------------
      LOOP:  cpu time    0.9165: real time    0.9183

 eigenvalue-minimisations  :     0
 total energy-change (2. order) :-0.6410461E-06  ( 0.3290939E-05)
 number of electron      16.0000000 magnetization 
 augmentation part        1.3384013 magnetization 

 Free energy of the ion-electron system (eV)
  ---------------------------------------------------
  alpha Z        PSCENC =         1.06967730
  Ewald energy   TEWEN  =       302.25636593
  -Hartree energ DENC   =     -1152.08654876
  -exchange      EXHF   =        46.75238609
  -V(xc)+E(xc)   XCENC  =        53.59521459
  PAW double counting   =      1671.90842665    -1674.44765111
  entropy T*S    EENTRO =         0.02320886
  eigenvalues    EBANDS =      -281.70241457
  atomic energy  EATOM  =      1004.25233184
  ---------------------------------------------------
  free energy    TOTEN  =       -28.37901534 eV

  energy without entropy =      -28.40222421  energy(sigma->0) =      -28.38675163
  exchange ACFDT corr.  =         0.00039322  see jH, gK, PRB 81, 115126


--------------------------------------------------------------------------------------------------------




--------------------------------------- Iteration      1(  23)  ---------------------------------------


    POTLOK:  cpu time    0.2546: real time    0.2546
    SETDIJ:  cpu time    0.1295: real time    0.1295
    TRIAL :  cpu time    0.0383: real time    0.0383
    CORREC:  cpu time    0.4550: real time    0.4550
    CHARGE:  cpu time    0.0383: real time    0.0386
    --------------------------------------------
      LOOP:  cpu time    0.9163: real time    0.9202

 eigenvalue-minimisations  :     0
 total energy-change (2. order) :-0.2302531E-05  (-0.3233390E-05)
 number of electron      16.0000000 magnetization 
 augmentation part        1.3383633 magnetization 

 Free energy of the ion-electron system (eV)
  ---------------------------------------------------
  alpha Z        PSCENC =         1.06967730
  Ewald energy   TEWEN  =       302.25636593
  -Hartree energ DENC   =     -1152.08790467
  -exchange      EXHF   =        46.75263994
  -V(xc)+E(xc)   XCENC  =        53.59531431
  PAW double counting   =      1671.88420280    -1674.42343686
  entropy T*S    EENTRO =         0.02321221
  eigenvalues    EBANDS =      -281.70141711
  atomic energy  EATOM  =      1004.25233184
  ---------------------------------------------------
  free energy    TOTEN  =       -28.37901765 eV

  energy without entropy =      -28.40222986  energy(sigma->0) =      -28.38675505
  exchange ACFDT corr.  =         0.00074682  see jH, gK, PRB 81, 115126


--------------------------------------------------------------------------------------------------------




--------------------------------------- Iteration      1(  24)  ---------------------------------------


    POTLOK:  cpu time    0.2545: real time    0.2545
    SETDIJ:  cpu time    0.1296: real time    0.1296
    TRIAL :  cpu time    0.0383: real time    0.0383
    CORREC:  cpu time    0.4550: real time    0.4552
    CHARGE:  cpu time    0.0384: real time    0.0384
    --------------------------------------------
      LOOP:  cpu time    0.9164: real time    0.9200

 eigenvalue-minimisations  :     0
 total energy-change (2. order) :-0.3232548E-05  (-0.5606410E-05)
 number of electron      16.0000000 magnetization 
 augmentation part        1.3383634 magnetization 

 Free energy of the ion-electron system (eV)
  ---------------------------------------------------
  alpha Z        PSCENC =         1.06967730
  Ewald energy   TEWEN  =       302.25636593
  -Hartree energ DENC   =     -1152.07365991
  -exchange      EXHF   =        46.75203502
  -V(xc)+E(xc)   XCENC  =        53.59475204
  PAW double counting   =      1671.87084101    -1674.40997635
  entropy T*S    EENTRO =         0.02323036
  eigenvalues    EBANDS =      -281.71459997
  atomic energy  EATOM  =      1004.25233184
  ---------------------------------------------------
  free energy    TOTEN  =       -28.37902088 eV

  energy without entropy =      -28.40225124  energy(sigma->0) =      -28.38676433
  exchange ACFDT corr.  =         0.00082095  see jH, gK, PRB 81, 115126


--------------------------------------------------------------------------------------------------------




--------------------------------------- Iteration      1(  25)  ---------------------------------------


    POTLOK:  cpu time    0.2545: real time    0.2545
    SETDIJ:  cpu time    0.1296: real time    0.1296
    TRIAL :  cpu time    0.0383: real time    0.0383
    CORREC:  cpu time    1.8205: real time    1.8210
    CHARGE:  cpu time    0.0385: real time    0.0385
    --------------------------------------------
      LOOP:  cpu time    2.2819: real time    2.2856

 eigenvalue-minimisations  :     0
 total energy-change (2. order) :-0.5431916E-05  (-0.6170136E-07)
 number of electron      16.0000000 magnetization 
 augmentation part        1.3383336 magnetization 

 Free energy of the ion-electron system (eV)
  ---------------------------------------------------
  alpha Z        PSCENC =         1.06967730
  Ewald energy   TEWEN  =       302.25636593
  -Hartree energ DENC   =     -1152.09033790
  -exchange      EXHF   =        46.75261414
  -V(xc)+E(xc)   XCENC  =        53.59536069
  PAW double counting   =      1671.89980998    -1674.43885794
  entropy T*S    EENTRO =         0.02362463
  eigenvalues    EBANDS =      -281.69922070
  atomic energy  EATOM  =      1004.25233184
  ---------------------------------------------------
  free energy    TOTEN  =       -28.37902631 eV

  energy without entropy =      -28.40265094  energy(sigma->0) =      -28.38690119
  exchange ACFDT corr.  =         0.00115513  see jH, gK, PRB 81, 115126


--------------------------------------------------------------------------------------------------------




--------------------------------------- Iteration      1(  26)  ---------------------------------------


    POTLOK:  cpu time    0.2547: real time    0.2547
    SETDIJ:  cpu time    0.1293: real time    0.1295
    TRIAL :  cpu time    0.0384: real time    0.0384
    CORREC:  cpu time    0.4564: real time    0.4564
    CHARGE:  cpu time    0.0385: real time    0.0385
    --------------------------------------------
      LOOP:  cpu time    0.9179: real time    0.9213

 eigenvalue-minimisations  :     0
 total energy-change (2. order) :-0.3061617E-04  (-0.6571245E-05)
 number of electron      16.0000000 magnetization 
 augmentation part        1.3383258 magnetization 

 Free energy of the ion-electron system (eV)
  ---------------------------------------------------
  alpha Z        PSCENC =         1.06967730
  Ewald energy   TEWEN  =       302.25636593
  -Hartree energ DENC   =     -1152.08731971
  -exchange      EXHF   =        46.75233393
  -V(xc)+E(xc)   XCENC  =        53.59496050
  PAW double counting   =      1671.97488341    -1674.51403752
  entropy T*S    EENTRO =         0.02380071
  eigenvalues    EBANDS =      -281.70187724
  atomic energy  EATOM  =      1004.25233184
  ---------------------------------------------------
  free energy    TOTEN  =       -28.37905693 eV

  energy without entropy =      -28.40285764  energy(sigma->0) =      -28.38699050
  exchange ACFDT corr.  =         0.00466969  see jH, gK, PRB 81, 115126


--------------------------------------------------------------------------------------------------------




--------------------------------------- Iteration      1(  27)  ---------------------------------------


    POTLOK:  cpu time    0.2548: real time    0.2548
    SETDIJ:  cpu time    0.1295: real time    0.1296
    TRIAL :  cpu time    0.0383: real time    0.0383
    CORREC:  cpu time    0.4554: real time    0.4554
    CHARGE:  cpu time    0.0385: real time    0.0385
    --------------------------------------------
      LOOP:  cpu time    0.9170: real time    0.9210

 eigenvalue-minimisations  :     0
 total energy-change (2. order) :-0.1106805E-04  (-0.6039227E-04)
 number of electron      16.0000000 magnetization 
 augmentation part        1.3382955 magnetization 

 Free energy of the ion-electron system (eV)
  ---------------------------------------------------
  alpha Z        PSCENC =         1.06967730
  Ewald energy   TEWEN  =       302.25636593
  -Hartree energ DENC   =     -1152.08637637
  -exchange      EXHF   =        46.75244938
  -V(xc)+E(xc)   XCENC  =        53.59486504
  PAW double counting   =      1671.98961343    -1674.52880607
  entropy T*S    EENTRO =         0.02473397
  eigenvalues    EBANDS =      -281.70298918
  atomic energy  EATOM  =      1004.25233184
  ---------------------------------------------------
  free energy    TOTEN  =       -28.37906800 eV

  energy without entropy =      -28.40380197  energy(sigma->0) =      -28.38731265
  exchange ACFDT corr.  =         0.00577657  see jH, gK, PRB 81, 115126


--------------------------------------------------------------------------------------------------------




--------------------------------------- Iteration      1(  28)  ---------------------------------------


    POTLOK:  cpu time    0.2548: real time    0.2548
    SETDIJ:  cpu time    0.1293: real time    0.1295
    TRIAL :  cpu time    0.0382: real time    0.0382
    CORREC:  cpu time    0.4554: real time    0.4554
    CHARGE:  cpu time    0.0386: real time    0.0386
    --------------------------------------------
      LOOP:  cpu time    0.9168: real time    0.9205

 eigenvalue-minimisations  :     0
 total energy-change (2. order) :-0.5243517E-04  (-0.2681948E-03)
 number of electron      16.0000000 magnetization 
 augmentation part        1.3383416 magnetization 

 Free energy of the ion-electron system (eV)
  ---------------------------------------------------
  alpha Z        PSCENC =         1.06967730
  Ewald energy   TEWEN  =       302.25636593
  -Hartree energ DENC   =     -1152.08247694
  -exchange      EXHF   =        46.75340196
  -V(xc)+E(xc)   XCENC  =        53.59450989
  PAW double counting   =      1672.02706319    -1674.56643813
  entropy T*S    EENTRO =         0.02490554
  eigenvalues    EBANDS =      -281.70828943
  atomic energy  EATOM  =      1004.25233184
  ---------------------------------------------------
  free energy    TOTEN  =       -28.37912043 eV

  energy without entropy =      -28.40402597  energy(sigma->0) =      -28.38742228
  exchange ACFDT corr.  =         0.01046245  see jH, gK, PRB 81, 115126


--------------------------------------------------------------------------------------------------------




--------------------------------------- Iteration      1(  29)  ---------------------------------------


    POTLOK:  cpu time    0.2545: real time    0.2545
    SETDIJ:  cpu time    0.1293: real time    0.1295
    TRIAL :  cpu time    0.0382: real time    0.0382
    CORREC:  cpu time    0.4549: real time    0.4549
    CHARGE:  cpu time    0.0385: real time    0.0385
    --------------------------------------------
      LOOP:  cpu time    0.9160: real time    0.9196

 eigenvalue-minimisations  :     0
 total energy-change (2. order) :-0.2681948E-03  (-0.1479143E-03)
 number of electron      16.0000000 magnetization 
 augmentation part        1.3384213 magnetization 

 Free energy of the ion-electron system (eV)
  ---------------------------------------------------
  alpha Z        PSCENC =         1.06967730
  Ewald energy   TEWEN  =       302.25636593
  -Hartree energ DENC   =     -1152.09805366
  -exchange      EXHF   =        46.75474386
  -V(xc)+E(xc)   XCENC  =        53.59520123
  PAW double counting   =      1671.91023305    -1674.44976089
  entropy T*S    EENTRO =         0.02512107
  eigenvalues    EBANDS =      -281.69503284
  atomic energy  EATOM  =      1004.25233184
  ---------------------------------------------------
  free energy    TOTEN  =       -28.37938863 eV

  energy without entropy =      -28.40450969  energy(sigma->0) =      -28.38776231
  exchange ACFDT corr.  =         0.01118476  see jH, gK, PRB 81, 115126


--------------------------------------------------------------------------------------------------------




--------------------------------------- Iteration      1(  30)  ---------------------------------------


    POTLOK:  cpu time    0.2545: real time    0.2545
    SETDIJ:  cpu time    0.1294: real time    0.1297
    TRIAL :  cpu time    0.0382: real time    0.0382
    CORREC:  cpu time    0.4551: real time    0.4551
    CHARGE:  cpu time    0.0386: real time    0.0386
    --------------------------------------------
      LOOP:  cpu time    0.9164: real time    0.9200

 eigenvalue-minimisations  :     0
 total energy-change (2. order) :-0.1478343E-03  (-0.5780883E-04)
 number of electron      16.0000000 magnetization 
 augmentation part        1.3384565 magnetization 

 Free energy of the ion-electron system (eV)
  ---------------------------------------------------
  alpha Z        PSCENC =         1.06967730
  Ewald energy   TEWEN  =       302.25636593
  -Hartree energ DENC   =     -1152.08421419
  -exchange      EXHF   =        46.75513707
  -V(xc)+E(xc)   XCENC  =        53.59474717
  PAW double counting   =      1671.90076709    -1674.44073416
  entropy T*S    EENTRO =         0.02530048
  eigenvalues    EBANDS =      -281.70873557
  atomic energy  EATOM  =      1004.25233184
  ---------------------------------------------------
  free energy    TOTEN  =       -28.37953646 eV

  energy without entropy =      -28.40483694  energy(sigma->0) =      -28.38796995
  exchange ACFDT corr.  =         0.01205633  see jH, gK, PRB 81, 115126


--------------------------------------------------------------------------------------------------------




--------------------------------------- Iteration      1(  31)  ---------------------------------------


    POTLOK:  cpu time    0.2544: real time    0.2544
    SETDIJ:  cpu time    0.1293: real time    0.1295
    TRIAL :  cpu time    0.0383: real time    0.0383
    CORREC:  cpu time    0.4553: real time    0.4553
    CHARGE:  cpu time    0.0385: real time    0.0385
    --------------------------------------------
      LOOP:  cpu time    0.9164: real time    0.9200

 eigenvalue-minimisations  :     0
 total energy-change (2. order) :-0.5776659E-04  (-0.3112561E-04)
 number of electron      16.0000000 magnetization 
 augmentation part        1.3384353 magnetization 

 Free energy of the ion-electron system (eV)
  ---------------------------------------------------
  alpha Z        PSCENC =         1.06967730
  Ewald energy   TEWEN  =       302.25636593
  -Hartree energ DENC   =     -1152.08649839
  -exchange      EXHF   =        46.75615497
  -V(xc)+E(xc)   XCENC  =        53.59496835
  PAW double counting   =      1671.98467690    -1674.52456837
  entropy T*S    EENTRO =         0.02546050
  eigenvalues    EBANDS =      -281.70800323
  atomic energy  EATOM  =      1004.25233184
  ---------------------------------------------------
  free energy    TOTEN  =       -28.37959423 eV

  energy without entropy =      -28.40505472  energy(sigma->0) =      -28.38808106
  exchange ACFDT corr.  =         0.01274712  see jH, gK, PRB 81, 115126


--------------------------------------------------------------------------------------------------------




--------------------------------------- Iteration      1(  32)  ---------------------------------------


    POTLOK:  cpu time    0.2541: real time    0.2544
    SETDIJ:  cpu time    0.1295: real time    0.1295
    TRIAL :  cpu time    0.0384: real time    0.0384
    CORREC:  cpu time    0.4545: real time    0.4545
    CHARGE:  cpu time    0.0385: real time    0.0385
    --------------------------------------------
      LOOP:  cpu time    0.9156: real time    0.9192

 eigenvalue-minimisations  :     0
 total energy-change (2. order) :-0.3108746E-04  (-0.1700727E-04)
 number of electron      16.0000000 magnetization 
 augmentation part        1.3383956 magnetization 

 Free energy of the ion-electron system (eV)
  ---------------------------------------------------
  alpha Z        PSCENC =         1.06967730
  Ewald energy   TEWEN  =       302.25636593
  -Hartree energ DENC   =     -1152.08404648
  -exchange      EXHF   =        46.75685898
  -V(xc)+E(xc)   XCENC  =        53.59502689
  PAW double counting   =      1672.07240680    -1674.61200047
  entropy T*S    EENTRO =         0.02558696
  eigenvalues    EBANDS =      -281.71170661
  atomic energy  EATOM  =      1004.25233184
  ---------------------------------------------------
  free energy    TOTEN  =       -28.37962531 eV

  energy without entropy =      -28.40521228  energy(sigma->0) =      -28.38815430
  exchange ACFDT corr.  =         0.01333110  see jH, gK, PRB 81, 115126


--------------------------------------------------------------------------------------------------------




--------------------------------------- Iteration      1(  33)  ---------------------------------------


    POTLOK:  cpu time    0.2543: real time    0.2545
    SETDIJ:  cpu time    0.1299: real time    0.1299
    TRIAL :  cpu time    0.0383: real time    0.0383
    CORREC:  cpu time    0.4546: real time    0.4551
    CHARGE:  cpu time    0.0385: real time    0.0386
    --------------------------------------------
      LOOP:  cpu time    0.9161: real time    0.9199

 eigenvalue-minimisations  :     0
 total energy-change (2. order) :-0.1699188E-04  (-0.7621801E-05)
 number of electron      16.0000000 magnetization 
 augmentation part        1.3383722 magnetization 

 Free energy of the ion-electron system (eV)
  ---------------------------------------------------
  alpha Z        PSCENC =         1.06967730
  Ewald energy   TEWEN  =       302.25636593
  -Hartree energ DENC   =     -1152.08454573
  -exchange      EXHF   =        46.75745381
  -V(xc)+E(xc)   XCENC  =        53.59515037
  PAW double counting   =      1672.13296245    -1674.67236837
  entropy T*S    EENTRO =         0.02565868
  eigenvalues    EBANDS =      -281.71225686
  atomic energy  EATOM  =      1004.25233184
  ---------------------------------------------------
  free energy    TOTEN  =       -28.37964231 eV

  energy without entropy =      -28.40530098  energy(sigma->0) =      -28.38819520
  exchange ACFDT corr.  =         0.01377329  see jH, gK, PRB 81, 115126


--------------------------------------------------------------------------------------------------------




--------------------------------------- Iteration      1(  34)  ---------------------------------------


    POTLOK:  cpu time    0.2543: real time    0.2545
    SETDIJ:  cpu time    0.1297: real time    0.1297
    TRIAL :  cpu time    0.0382: real time    0.0382
    CORREC:  cpu time    0.4552: real time    0.4552
    CHARGE:  cpu time    0.0386: real time    0.0386
    --------------------------------------------
      LOOP:  cpu time    0.9167: real time    0.9200

 eigenvalue-minimisations  :     0
 total energy-change (2. order) :-0.7621187E-05  (-0.3437440E-05)
 number of electron      16.0000000 magnetization 
 augmentation part        1.3383573 magnetization 

 Free energy of the ion-electron system (eV)
  ---------------------------------------------------
  alpha Z        PSCENC =         1.06967730
  Ewald energy   TEWEN  =       302.25636593
  -Hartree energ DENC   =     -1152.08845361
  -exchange      EXHF   =        46.75787821
  -V(xc)+E(xc)   XCENC  =        53.59531653
  PAW double counting   =      1672.12374256    -1674.66317749
  entropy T*S    EENTRO =         0.02569351
  eigenvalues    EBANDS =      -281.70898988
  atomic energy  EATOM  =      1004.25233184
  ---------------------------------------------------
  free energy    TOTEN  =       -28.37964993 eV

  energy without entropy =      -28.40534343  energy(sigma->0) =      -28.38821443
  exchange ACFDT corr.  =         0.01401403  see jH, gK, PRB 81, 115126


--------------------------------------------------------------------------------------------------------




--------------------------------------- Iteration      1(  35)  ---------------------------------------


    POTLOK:  cpu time    0.2543: real time    0.2545
    SETDIJ:  cpu time    0.1295: real time    0.1295
    TRIAL :  cpu time    0.0382: real time    0.0383
    CORREC:  cpu time    0.4546: real time    0.4546
    CHARGE:  cpu time    0.0386: real time    0.0386
    --------------------------------------------
      LOOP:  cpu time    0.9171: real time    0.9197

 eigenvalue-minimisations  :     0
 total energy-change (2. order) :-0.3441939E-05  (-0.1851952E-05)
 number of electron      16.0000000 magnetization 
 augmentation part        1.3383713 magnetization 

 Free energy of the ion-electron system (eV)
  ---------------------------------------------------
  alpha Z        PSCENC =         1.06967730
  Ewald energy   TEWEN  =       302.25636593
  -Hartree energ DENC   =     -1152.08640442
  -exchange      EXHF   =        46.75793068
  -V(xc)+E(xc)   XCENC  =        53.59525719
  PAW double counting   =      1672.07581795    -1674.61535167
  entropy T*S    EENTRO =         0.02571052
  eigenvalues    EBANDS =      -281.71097167
  atomic energy  EATOM  =      1004.25233184
  ---------------------------------------------------
  free energy    TOTEN  =       -28.37965337 eV

  energy without entropy =      -28.40536389  energy(sigma->0) =      -28.38822354
  exchange ACFDT corr.  =         0.01412874  see jH, gK, PRB 81, 115126


--------------------------------------------------------------------------------------------------------




--------------------------------------- Iteration      1(  36)  ---------------------------------------


    POTLOK:  cpu time    0.2544: real time    0.2546
    SETDIJ:  cpu time    0.1296: real time    0.1296
    TRIAL :  cpu time    0.0383: real time    0.0383
    CORREC:  cpu time    0.4556: real time    0.4556
    CHARGE:  cpu time    0.0385: real time    0.0385
    --------------------------------------------
      LOOP:  cpu time    0.9188: real time    0.9203

 eigenvalue-minimisations  :     0
 total energy-change (2. order) :-0.1854642E-05  (-0.1047303E-05)
 number of electron      16.0000000 magnetization 
 augmentation part        1.3383838 magnetization 

 Free energy of the ion-electron system (eV)
  ---------------------------------------------------
  alpha Z        PSCENC =         1.06967730
  Ewald energy   TEWEN  =       302.25636593
  -Hartree energ DENC   =     -1152.09041995
[...]
  Fock      -26.08832   -25.92197   -29.74318    -0.16137    -0.00000    -0.00000
  -------------------------------------------------------------------------------------
  Total      -0.35066    -0.34602    -0.28640    -0.00448    -0.00002    -0.00002
  in kB      -0.56182    -0.55438    -0.45886    -0.00718    -0.00002    -0.00003
  external pressure =       -0.53 kB  Pullay stress =        0.00 kB


 VOLUME and BASIS-vectors are now :
 -----------------------------------------------------------------------------
  energy-cutoff  :      450.00
  volume of cell :     1000.00
      direct lattice vectors                 reciprocal lattice vectors
    10.000000000  0.000000000  0.000000000     0.100000000  0.000000000  0.000000000
     0.000000000 10.000000000  0.000000000     0.000000000  0.100000000  0.000000000
     0.000000000  0.000000000 10.000000000     0.000000000  0.000000000  0.100000000

  length of vectors
    10.000000000 10.000000000 10.000000000     0.100000000  0.100000000  0.100000000


 FORCES acting on ions:
    Electron-Ion                     Ewald-Force                    Non-Local-Force
 -----------------------------------------------------------------------------------------------
   -.702E-05 -.123E-04 0.148E-04   0.699E-05 0.122E-04 -.206E-04   -.893E-07 -.118E-06 0.687E-06
   -.313E-04 -.327E-05 -.276E+03   0.383E-04 0.272E-05 0.343E+03   -.540E-05 0.952E-06 -.587E+02
   0.360E-04 0.115E-04 0.276E+03   -.453E-04 -.149E-04 -.343E+03   0.739E-05 0.252E-05 0.587E+02
 -----------------------------------------------------------------------------------------------
   -.233E-05 -.408E-05 0.374E-05   0.746E-16 0.955E-16 0.000E+00   0.190E-05 0.335E-05 -.944E-06
 
 
 POSITION                                       TOTAL-FORCE (eV/Angst)
 -----------------------------------------------------------------------------------
      5.00000      5.00000      5.00000        -0.000000     -0.000000     -0.000006
      5.00000      5.00000      6.16346         0.000001      0.000000      0.000069
      5.00000      5.00000      3.83654        -0.000001     -0.000000     -0.000063
 -----------------------------------------------------------------------------------
    total drift:                               -0.000000     -0.000000      0.000002


--------------------------------------------------------------------------------------------------------



  FREE ENERGIE OF THE ION-ELECTRON SYSTEM (eV)
  ---------------------------------------------------
  free  energy   TOTEN  =       -28.37965935 eV

  energy  without entropy=      -28.40536179  energy(sigma->0) =      -28.38822683
 
 d Force = 0.1267944E-11[ 0.582E-12, 0.195E-11]  d Energy = 0.6074785E-09-0.606E-09
 d Force = 0.4204327E-05[ 0.420E-05, 0.420E-05]  d Ewald  = 0.4204298E-05 0.290E-10


--------------------------------------------------------------------------------------------------------


    POTLOK:  cpu time    0.3836: real time    0.3836


--------------------------------------------------------------------------------------------------------


 Quasi-Newton relaxation of ions (Broydens 2nd method)
  g(Force)  = 0.171E-10   g(Stress)= 0.000E+00

 retain information from N=  2 steps
 eigenvalues of (default step * inverse Hessian matrix)
  average eigenvalue of G=   0.9742
 eigenvalue spectrum of G is  0.4020  1.5465


--------------------------------------------------------------------------------------------------------


    WAVPRE:  cpu time    0.0419: real time    0.0436
    FEWALD:  cpu time    0.0001: real time    0.0001
    ORTHCH:  cpu time    0.0005: real time    0.0005
    CHARGE:  cpu time    0.0390: real time    0.0390
 writing wavefunctions
     LOOP+:  cpu time    6.6363: real time    6.6575


--------------------------------------- Iteration     29(   1)  ---------------------------------------


    POTLOK:  cpu time    0.2548: real time    0.2548
    SETDIJ:  cpu time    0.1292: real time    0.1292
    TRIAL :  cpu time    0.0382: real time    0.0382
    CORREC:  cpu time    0.4549: real time    0.4549
    CHARGE:  cpu time    0.0388: real time    0.0388
    --------------------------------------------
      LOOP:  cpu time    0.9167: real time    0.9173

 eigenvalue-minimisations  :     0
 total energy-change (2. order) : 0.2926228E-09  (-0.2630108E-13)
 number of electron      16.0000000 magnetization 
 augmentation part        1.3383876 magnetization 

 Free energy of the ion-electron system (eV)
  ---------------------------------------------------
  alpha Z        PSCENC =         1.06967730
  Ewald energy   TEWEN  =       302.25367573
  -Hartree energ DENC   =     -1152.08565376
  -exchange      EXHF   =        46.75851365
  -V(xc)+E(xc)   XCENC  =        53.59547979
  PAW double counting   =      1671.89426903    -1674.43395006
  entropy T*S    EENTRO =         0.02570243
  eigenvalues    EBANDS =      -281.70970532
  atomic energy  EATOM  =      1004.25233184
  ---------------------------------------------------
  free energy    TOTEN  =       -28.37965935 eV

  energy without entropy =      -28.40536179  energy(sigma->0) =      -28.38822683
  exchange ACFDT corr.  =         0.01415728  see jH, gK, PRB 81, 115126


--------------------------------------------------------------------------------------------------------




--------------------------------------- Iteration     29(   2)  ---------------------------------------


    POTLOK:  cpu time    0.2552: real time    0.2552
    SETDIJ:  cpu time    0.1292: real time    0.1292
    TRIAL :  cpu time    0.0382: real time    0.0382
    CORREC:  cpu time    0.4552: real time    0.4552
    CHARGE:  cpu time    0.0387: real time    0.0387
    --------------------------------------------
      LOOP:  cpu time    0.9169: real time    0.9205

 eigenvalue-minimisations  :     0
 total energy-change (2. order) :-0.2049205E-09  (-0.1045247E-13)
 number of electron      16.0000000 magnetization 
 augmentation part        1.3383876 magnetization 

 Free energy of the ion-electron system (eV)
  ---------------------------------------------------
  alpha Z        PSCENC =         1.06967730
  Ewald energy   TEWEN  =       302.25367573
  -Hartree energ DENC   =     -1152.08565370
  -exchange      EXHF   =        46.75851365
  -V(xc)+E(xc)   XCENC  =        53.59547979
  PAW double counting   =      1671.89426882    -1674.43394984
  entropy T*S    EENTRO =         0.02570243
  eigenvalues    EBANDS =      -281.70970538
  atomic energy  EATOM  =      1004.25233184
  ---------------------------------------------------
  free energy    TOTEN  =       -28.37965935 eV

  energy without entropy =      -28.40536179  energy(sigma->0) =      -28.38822683
  exchange ACFDT corr.  =         0.01415728  see jH, gK, PRB 81, 115126


--------------------------------------------------------------------------------------------------------




--------------------------------------- Iteration     29(   3)  ---------------------------------------


    POTLOK:  cpu time    0.2551: real time    0.2551
    SETDIJ:  cpu time    0.1293: real time    0.1293
    TRIAL :  cpu time    0.0383: real time    0.0383
    CORREC:  cpu time    0.4536: real time    0.4536
    CHARGE:  cpu time    0.0388: real time    0.0388
    --------------------------------------------
      LOOP:  cpu time    0.9156: real time    0.9183

 eigenvalue-minimisations  :     0
 total energy-change (2. order) : 0.1198352E-08  ( 0.5454059E-13)
 number of electron      16.0000000 magnetization 
 augmentation part        1.3383876 magnetization 

 Free energy of the ion-electron system (eV)
  ---------------------------------------------------
  alpha Z        PSCENC =         1.06967730
  Ewald energy   TEWEN  =       302.25367573
  -Hartree energ DENC   =     -1152.08565366
  -exchange      EXHF   =        46.75851365
  -V(xc)+E(xc)   XCENC  =        53.59547979
  PAW double counting   =      1671.89426871    -1674.43394973
  entropy T*S    EENTRO =         0.02570243
  eigenvalues    EBANDS =      -281.70970541
  atomic energy  EATOM  =      1004.25233184
  ---------------------------------------------------
  free energy    TOTEN  =       -28.37965935 eV

  energy without entropy =      -28.40536179  energy(sigma->0) =      -28.38822683
  exchange ACFDT corr.  =         0.01415728  see jH, gK, PRB 81, 115126


--------------------------------------------------------------------------------------------------------




--------------------------------------- Iteration     29(   4)  ---------------------------------------


    POTLOK:  cpu time    0.2551: real time    0.2551
    SETDIJ:  cpu time    0.1293: real time    0.1293
    TRIAL :  cpu time    0.0383: real time    0.0383
    CORREC:  cpu time    0.4534: real time    0.4534
    CHARGE:  cpu time    0.0397: real time    0.0397
    --------------------------------------------
      LOOP:  cpu time    0.9163: real time    0.9193

 eigenvalue-minimisations  :     0
 total energy-change (2. order) :-0.1857003E-09  ( 0.1405753E-13)
 number of electron      16.0000000 magnetization 
 augmentation part        1.3383876 magnetization 

 Free energy of the ion-electron system (eV)
  ---------------------------------------------------
  alpha Z        PSCENC =         1.06967730
  Ewald energy   TEWEN  =       302.25367573
  -Hartree energ DENC   =     -1152.08564580
  -exchange      EXHF   =        46.75851348
  -V(xc)+E(xc)   XCENC  =        53.59547962
  PAW double counting   =      1671.89424225    -1674.43392330
  entropy T*S    EENTRO =         0.02570243
  eigenvalues    EBANDS =      -281.70971290
  atomic energy  EATOM  =      1004.25233184
  ---------------------------------------------------
  free energy    TOTEN  =       -28.37965935 eV

  energy without entropy =      -28.40536179  energy(sigma->0) =      -28.38822683
  exchange ACFDT corr.  =         0.01415728  see jH, gK, PRB 81, 115126


--------------------------------------------------------------------------------------------------------




--------------------------------------- Iteration     29(   5)  ---------------------------------------


    POTLOK:  cpu time    0.2555: real time    0.2555
    SETDIJ:  cpu time    0.1294: real time    0.1294
    TRIAL :  cpu time    0.0381: real time    0.0381
    CORREC:  cpu time    0.4538: real time    0.4538
    EDDIAG:  cpu time    0.0327: real time    0.0327
    CHARGE:  cpu time    0.0387: real time    0.0387
    --------------------------------------------
      LOOP:  cpu time    0.9492: real time    0.9521

 eigenvalue-minimisations  :     0
 total energy-change (2. order) :-0.5765344E-09  ( 0.7252631E-14)
 number of electron      16.0000000 magnetization 
 augmentation part        1.3383876 magnetization 

 Free energy of the ion-electron system (eV)
  ---------------------------------------------------
  alpha Z        PSCENC =         1.06967730
  Ewald energy   TEWEN  =       302.25367573
  -Hartree energ DENC   =     -1152.08563942
  -exchange      EXHF   =        46.75851326
  -V(xc)+E(xc)   XCENC  =        53.59547949
  PAW double counting   =      1671.89421588    -1674.43389697
  entropy T*S    EENTRO =         0.02570243
  eigenvalues    EBANDS =      -281.70971898
  atomic energy  EATOM  =      1004.25233184
  ---------------------------------------------------
  free energy    TOTEN  =       -28.37965935 eV

  energy without entropy =      -28.40536179  energy(sigma->0) =      -28.38822683
  exchange ACFDT corr.  =         0.01415728  see jH, gK, PRB 81, 115126


--------------------------------------------------------------------------------------------------------


  average scaling for gradient   1.1367


 average (electrostatic) potential at core
  the test charge radii are     0.6991  0.7215
  (the norm of the test charge is              1.0000)
       1 -59.9966       2 -76.3450       3 -76.3450
 
 
 
 E-fermi :  -9.9201     XC(G=0):  -0.6284     alpha+bet : -0.2500


 k-point     1 :       0.0000    0.0000    0.0000
  band No.  band energies     occupation 
      1     -32.0979      2.00000
      2     -30.9407      2.00000
      3     -15.3416      2.00000
      4     -14.0988      2.00000
      5     -14.0856      2.00000
      6     -14.0704      2.00000
      7     -10.1536      2.06982
      8     -10.0632      1.93018
      9      -0.5709      0.00000
     10       0.8308      0.00000
     11       1.2316      0.00000
     12       1.2342      0.00000


--------------------------------------------------------------------------------------------------------


 soft charge-density along one line, spin component           1
         0         1         2         3         4         5         6         7         8         9
 total charge-density along one line
 
 pseudopotential strength for first ion, spin component:           1
 10.288  13.687   0.000   0.000   0.000  -0.000  -0.000  -0.000
 13.687  18.207   0.000   0.000   0.000  -0.000  -0.000  -0.000
  0.000   0.000  -4.461  -0.000   0.000   8.699   0.000  -0.000
  0.000   0.000  -0.000  -4.496  -0.000   0.000   8.754   0.000
  0.000   0.000   0.000  -0.000  -4.461  -0.000   0.000   8.698
 -0.000  -0.000   8.699   0.000  -0.000 -19.093  -0.000   0.000
 -0.000  -0.000   0.000   8.754   0.000  -0.000 -19.178  -0.000
 -0.000  -0.000  -0.000   0.000   8.698   0.000  -0.000 -19.092
 total augmentation occupancy for first ion, spin component:           1
 12.505  -6.417  -0.000   0.000  -0.000  -0.000   0.000  -0.000
 -6.417   3.476   0.000  -0.000   0.000   0.000  -0.000   0.000
 -0.000   0.000   1.224   0.000  -0.002   0.091   0.000  -0.000
  0.000  -0.000   0.000   2.650   0.000   0.000   0.338   0.000
 -0.000   0.000  -0.002   0.000   1.221  -0.000   0.000   0.091
 -0.000   0.000   0.091   0.000  -0.000   0.007   0.000   0.000
  0.000  -0.000   0.000   0.338   0.000   0.000   0.052   0.000
 -0.000   0.000  -0.000   0.000   0.091   0.000   0.000   0.007


------------------------ aborting loop because EDIFF is reached ----------------------------------------


    FORLOC:  cpu time    0.0042: real time    0.0042
    FORHF :  cpu time    0.0218: real time    0.0218
    FORNL :  cpu time    0.2699: real time    0.2699
    STRESS:  cpu time    0.8600: real time    0.8600
    FORCOR:  cpu time    0.2563: real time    0.2563
    OFIELD:  cpu time    0.0004: real time    0.0004

  FORCE on cell =-STRESS in cart. coord.  units (eV):
  Direction    XX          YY          ZZ          XY          YZ          ZX
  --------------------------------------------------------------------------------------
  Alpha Z     1.06968     1.06968     1.06968
  Ewald    -177.79805  -177.79805   657.84963     0.00000     0.00002     0.00010
  Hartree   248.54207   247.49868   656.04489     0.98424     0.00001     0.00004
  E(xc)     -56.72786   -56.73528   -55.64831     0.00720     0.00000     0.00000
  Local    -307.71554  -304.91795 -1475.58084    -2.68755    -0.00003    -0.00013
  n-local   -38.91799   -38.61730   -43.81287    -0.29204     0.00000    -0.00000
  augment    12.62520    12.38409     9.77677     0.23414    -0.00002    -0.00002
  Kinetic   344.66015   342.69209   279.75782     1.91090    -0.00000    -0.00001
  Fock      -26.08832   -25.92197   -29.74318    -0.16138    -0.00000    -0.00000
  -------------------------------------------------------------------------------------
  Total      -0.35066    -0.34602    -0.28642    -0.00448    -0.00001    -0.00002
  in kB      -0.56181    -0.55438    -0.45889    -0.00718    -0.00002    -0.00003
  external pressure =       -0.53 kB  Pullay stress =        0.00 kB


 VOLUME and BASIS-vectors are now :
 -----------------------------------------------------------------------------
  energy-cutoff  :      450.00
  volume of cell :     1000.00
      direct lattice vectors                 reciprocal lattice vectors
    10.000000000  0.000000000  0.000000000     0.100000000  0.000000000  0.000000000
     0.000000000 10.000000000  0.000000000     0.000000000  0.100000000  0.000000000
     0.000000000  0.000000000 10.000000000     0.000000000  0.000000000  0.100000000

  length of vectors
    10.000000000 10.000000000 10.000000000     0.100000000  0.100000000  0.100000000


 FORCES acting on ions:
    Electron-Ion                     Ewald-Force                    Non-Local-Force
 -----------------------------------------------------------------------------------------------
   -.687E-05 -.120E-04 0.106E-04   0.685E-05 0.119E-04 -.981E-05   -.653E-07 -.782E-07 0.220E-05
   -.324E-04 -.383E-05 -.276E+03   0.387E-04 0.298E-05 0.343E+03   -.573E-05 0.779E-06 -.587E+02
   0.369E-04 0.117E-04 0.276E+03   -.456E-04 -.149E-04 -.343E+03   0.765E-05 0.257E-05 0.587E+02
 -----------------------------------------------------------------------------------------------
   -.238E-05 -.417E-05 -.425E-05   0.743E-16 0.962E-16 -.568E-13   0.186E-05 0.327E-05 0.102E-05
 
 
 POSITION                                       TOTAL-FORCE (eV/Angst)
 -----------------------------------------------------------------------------------
      5.00000      5.00000      5.00000        -0.000000     -0.000000      0.000005
      5.00000      5.00000      6.16346        -0.000000      0.000000      0.000005
      5.00000      5.00000      3.83654         0.000000      0.000000     -0.000010
 -----------------------------------------------------------------------------------
    total drift:                               -0.000000     -0.000000     -0.000004


--------------------------------------------------------------------------------------------------------



  FREE ENERGIE OF THE ION-ELECTRON SYSTEM (eV)
  ---------------------------------------------------
  free  energy   TOTEN  =       -28.37965935 eV

  energy  without entropy=      -28.40536179  energy(sigma->0) =      -28.38822683
 
 d Force = 0.5208786E-11[ 0.100E-11, 0.942E-11]  d Energy =-0.6338396E-09 0.639E-09
 d Force = 0.4834868E-04[ 0.483E-04, 0.483E-04]  d Ewald  = 0.4834869E-04-0.109E-10


--------------------------------------------------------------------------------------------------------


    POTLOK:  cpu time    0.3839: real time    0.3839


--------------------------------------------------------------------------------------------------------


 Quasi-Newton relaxation of ions (Broydens 2nd method)
  g(Force)  = 0.278E-12   g(Stress)= 0.000E+00

 retain information from N=  2 steps
 eigenvalues of (default step * inverse Hessian matrix)
  average eigenvalue of G=   0.5054
 eigenvalue spectrum of G is  0.5054  0.5054


--------------------------------------------------------------------------------------------------------


  
 reached required accuracy - stopping structural energy minimisation
 writing wavefunctions
     LOOP+:  cpu time    6.5785: real time    6.5994
    4ORBIT:  cpu time    0.0002: real time    0.0159

 total amount of memory used by VASP MPI-rank0    50742. kBytes
=======================================================================

   base      :      30000. kBytes
   nonl-proj :        118. kBytes
   fftplans  :      13895. kBytes
   grid      :       6529. kBytes
   one-center:          1. kBytes
   HF        :          4. kBytes
   nonlr-proj:          0. kBytes
   wavefun   :        195. kBytes
 
  
  
 General timing and accounting informations for this job:
 ========================================================
  
                  Total CPU time used (sec):      252.422
                            User time (sec):      241.239
                          System time (sec):       11.182
                         Elapsed time (sec):      253.884
  
                   Maximum memory used (kb):      239548.
                   Average memory used (kb):           0.
  
                          Minor page faults:        26051
                          Major page faults:            0
                 Voluntary context switches:         3438
